2
Lattice="10.0 0.0 0.0 0.0 10.0 0.0 0.0 0.0 10.0" Properties=species:S:1:pos:R:3:magmoms:R:1:forces:R:3 energy=-7.288237591402252 free_energy=-7.400704620326049 dipole="8.648538836250736e-15 8.612756144416002e-15 0.34666552086286967" magmom=0.0 pbc="T T T"
O        5.00000000       5.00000000       4.50489498       0.00000000      -0.00000000       0.00000000       0.02928322
H        5.00000000       5.00000000       5.49498329       0.00000000       0.00000000       0.00000000      -0.03939025
