
  ___ ___ ___ _ _ _  
 |   |   |_  | | | | 
 | | | | | . | | | | 
 |__ |  _|___|_____|  25.7.0
 |___|_|             

User:   qchem@IFEOLUWA
Date:   Tue Sep 30 15:39:55 2025
Arch:   x86_64
Pid:    14673
CWD:    /home/qchem/projects/gpaw_calculations
Python: 3.12.3
gpaw:   /home/qchem/gpaw-venv/lib/python3.12/site-packages/gpaw
_gpaw:  /home/qchem/gpaw-venv/lib/python3.12/site-packages/
        _gpaw.cpython-312-x86_64-linux-gnu.so
ase:    /home/qchem/gpaw-venv/lib/python3.12/site-packages/ase (version 3.26.0)
numpy:  /home/qchem/gpaw-venv/lib/python3.12/site-packages/numpy (version 2.3.3)
scipy:  /home/qchem/gpaw-venv/lib/python3.12/site-packages/scipy (version 1.16.2)
libxc:  5.2.3
units:  Angstrom and eV
cores: 1
OpenMP: False
OMP_NUM_THREADS: 1

Input parameters:
  mode: {ecut: 500.0,
         name: pw}
  occupations: {name: fermi-dirac,
                width: 0.1}
  spinpol: True

System changes: positions, numbers, cell, pbc, initial_charges, initial_magmoms 

Initialize ...

species:
  O:
    name: Oxygen
    id: 9b9d51c344dea68c822856295a461509
    Z: 8.0
    valence: 6
    core: 2
    charge: 0.0
    file: /home/qchem/gpaw-venv/lib/python3.12/site-packages/gpaw_data/setups/O.LDA.gz
    compensation charges: {type: gauss,
                           rc: 0.21,
                           lmax: 2}
    cutoffs: {filter: 1.17,
              core: 0.83}
    projectors:
      #              energy  rcut
      - 2s(2.00)   -23.752   0.688
      - 2p(4.00)    -9.195   0.598
      -  s           3.459   0.688
      -  p          18.016   0.598
      -  d           0.000   0.619
  
    # Using partial waves for O as LCAO basis

  H:
    name: Hydrogen
    id: 4766778ce56282eaa64abeb28b7c1de3
    Z: 1.0
    valence: 1
    core: 0
    charge: 0.0
    file: /home/qchem/gpaw-venv/lib/python3.12/site-packages/gpaw_data/setups/H.LDA.gz
    compensation charges: {type: gauss,
                           rc: 0.15,
                           lmax: 2}
    cutoffs: {filter: 0.85,
              core: 0.53}
    projectors:
      #              energy  rcut
      - 1s(1.00)    -6.353   0.476
      -  s          20.858   0.476
      -  p           0.000   0.476
  
    # Using partial waves for H as LCAO basis

Reference energy: -2040.037027  # eV

Spin-polarized calculation.
Initial magnetic moment: 0.000000

Convergence criteria:
 Maximum [total energy] change in last 3 cyles: 0.0005 eV / valence electron
 Maximum integral of absolute [dens]ity change: 0.0001 electrons / valence electron
 Maximum integral of absolute [eigenst]ate change: 4e-08 eV^2 / valence electron
 Maximum number of scf [iter]ations: 333
 (Square brackets indicate name in SCF output, whereas a 'c' in
 the SCF output indicates the quantity has converged.)

Symmetries present (total): 8

  ( 1  0  0)  ( 1  0  0)  ( 0  1  0)  ( 0  1  0)  ( 0 -1  0)  ( 0 -1  0)
  ( 0  1  0)  ( 0 -1  0)  ( 1  0  0)  (-1  0  0)  ( 1  0  0)  (-1  0  0)
  ( 0  0  1)  ( 0  0  1)  ( 0  0  1)  ( 0  0  1)  ( 0  0  1)  ( 0  0  1)

  (-1  0  0)  (-1  0  0)
  ( 0  1  0)  ( 0 -1  0)
  ( 0  0  1)  ( 0  0  1)

1 k-point (Gamma)
1 k-point in the irreducible part of the Brillouin zone
       k-points in crystal coordinates                weights
   0:     0.00000000    0.00000000    0.00000000          1/1

Wave functions: Plane wave expansion
  Cutoff energy: 500.000 eV
  Number of coefficients: 25413 (reduced to 12707)
  Pulay-stress correction: 0.000000 eV/Ang^3 (de/decut=0.000000)
  Using Numpy's FFT
  ScaLapack parameters: grid=1x1, blocksize=None
  Wavefunction extrapolation:
    Improved wavefunction reuse through dual PAW basis 

Occupation numbers: Fermi-Dirac:
  width: 0.1000  # eV
 

Eigensolver
   Davidson(niter=2) 

Densities:
  Coarse grid: 54*54*54 grid
  Fine grid: 108*108*108 grid
  Total Charge: 0.000000 

Density mixing:
  Method: difference
  Backend: pulay
  Linear mixing parameter: 0.05
  old densities: 5
  Damping of long wavelength oscillations: 50 

Hamiltonian:
  XC and Coulomb potentials evaluated on a 108*108*108 grid
  Using the LDA Exchange-Correlation functional
  External potential:
    NoExternalPotential
 

Memory estimate:
  Process memory now: 1465.56 MiB
  Calculator: 133.40 MiB
    Density: 92.55 MiB
      Arrays: 42.05 MiB
      Localized functions: 33.68 MiB
      Mixer: 16.82 MiB
    Hamiltonian: 32.06 MiB
      Arrays: 31.24 MiB
      XC: 0.00 MiB
      Poisson: 0.00 MiB
      vbar: 0.82 MiB
    Wavefunctions: 8.79 MiB
      Arrays psit_nG: 1.94 MiB
      Eigensolver: 1.94 MiB
      Projections: 0.00 MiB
      Projectors: 1.65 MiB
      PW-descriptor: 3.26 MiB

Total number of cores used: 1

Number of atoms: 2
Number of atomic orbitals: 5
Number of bands in calculation: 5
Number of valence electrons: 7
Bands to converge: occupied

... initialized

Initializing position-dependent things.

Density initialized from atomic densities
Creating initial wave functions:
  5 bands from LCAO basis set

       .------------------------.  
      /|                        |  
     / |                        |  
    /  |                        |  
   /   |                        |  
  /    |                        |  
 *     |                        |  
 |     |                        |  
 |     |         H              |  
 |     |                        |  
 |     |         O              |  
 |     |                        |  
 |     .------------------------.  
 |    /                        /   
 |   /                        /    
 |  /                        /     
 | /                        /      
 |/                        /       
 *------------------------*        

Atomic positions and initial magnetic moments

Positions:
   0 O      5.000000    5.000000    4.500000    ( 0.0000,  0.0000,  0.0000)
   1 H      5.000000    5.000000    5.500000    ( 0.0000,  0.0000,  0.0000)

Unit cell:
           periodic     x           y           z      points  spacing
  1. axis:    yes   10.000000    0.000000    0.000000    54     0.1852
  2. axis:    yes    0.000000   10.000000    0.000000    54     0.1852
  3. axis:    yes    0.000000    0.000000   10.000000    54     0.1852

  Lengths:  10.000000  10.000000  10.000000
  Angles:   90.000000  90.000000  90.000000

Effective grid spacing dv^(1/3) = 0.1852

     iter     time        total  log10-change:  magmom
                         energy   eigst   dens
iter:   1 15:40:00    -7.780446                   +0.0000
iter:   2 15:40:03    -7.684609   -1.49  -0.95    +0.0000
iter:   3 15:40:06    -7.326152   -1.03  -0.99    +0.0000
iter:   4 15:40:08    -7.312720   -1.66  -1.27    +0.0000
iter:   5 15:40:11    -7.305560   -1.78  -1.35    +0.0000
iter:   6 15:40:14    -7.285340   -2.06  -1.75    +0.0000
iter:   7 15:40:16    -7.286130   -2.78  -2.49    +0.0000
iter:   8 15:40:18    -7.285811c  -4.02  -2.33    +0.0000
iter:   9 15:40:19    -7.285717c  -4.37  -2.54    +0.0000
iter:  10 15:40:21    -7.285708c  -5.22  -2.98    +0.0000
iter:  11 15:40:23    -7.285691c  -4.85  -3.06    +0.0000
iter:  12 15:40:25    -7.285693c  -5.72  -3.49    +0.0000
iter:  13 15:40:29    -7.285690c  -5.99  -3.59    +0.0000
iter:  14 15:40:30    -7.285690c  -6.80  -4.14c   +0.0000
iter:  15 15:40:32    -7.285690c  -8.18c -4.29c   +0.0000

Converged after 15 iterations.

Dipole moment: (0.000000, 0.000000, 0.348101) |e|*Ang

Total magnetic moment: (0.000000, 0.000000, 0.000000)
Local magnetic moments:
   0 O  ( 0.000000,  0.000000,  0.000000)
   1 H  ( 0.000000,  0.000000,  0.000000)

Energy contributions relative to reference atoms: (reference = -2040.037027)

Kinetic:         +5.764980
Potential:       -6.726459
External:        +0.000000
XC:              -6.261553
Entropy (-ST):   -0.224934
Local:           +0.049810
SIC:             +0.000000
--------------------------
Free energy:     -7.398157
Extrapolated:    -7.285690

Spin contamination: 0.000000 electrons
                   Up                     Down
 Band  Eigenvalues  Occupancy  Eigenvalues  Occupancy
    0    -24.45179    1.00000    -24.45179    1.00000
    1    -11.33950    1.00000    -11.33950    1.00000
    2     -8.21899    0.75000     -8.21899    0.75000
    3     -8.21899    0.75000     -8.21899    0.75000
    4     -0.81341    0.00000     -0.81341    0.00000

Fermi level: -8.10913

Gap: 7.406 eV
Transition (v -> c):
  (s=0, k=0, n=3, [0.00, 0.00, 0.00]) -> (s=0, k=0, n=4, [0.00, 0.00, 0.00])
No difference between direct/indirect transitions

Forces in eV/Ang:
  0 O     0.00000    0.00000    0.46823
  1 H     0.00000    0.00000   -0.47988

System changes: positions 

Initializing position-dependent things.

Density initialized from wave functions
       .------------------------.  
      /|                        |  
     / |                        |  
    /  |                        |  
   /   |                        |  
  /    |                        |  
 *     |                        |  
 |     |                        |  
 |     |         H              |  
 |     |                        |  
 |     |         O              |  
 |     |                        |  
 |     .------------------------.  
 |    /                        /   
 |   /                        /    
 |  /                        /     
 | /                        /      
 |/                        /       
 *------------------------*        

Atomic positions and initial magnetic moments

Positions:
   0 O      5.000000    5.000000    4.546823    ( 0.0000,  0.0000,  0.0000)
   1 H      5.000000    5.000000    5.452012    ( 0.0000,  0.0000,  0.0000)

Unit cell:
           periodic     x           y           z      points  spacing
  1. axis:    yes   10.000000    0.000000    0.000000    54     0.1852
  2. axis:    yes    0.000000   10.000000    0.000000    54     0.1852
  3. axis:    yes    0.000000    0.000000   10.000000    54     0.1852

  Lengths:  10.000000  10.000000  10.000000
  Angles:   90.000000  90.000000  90.000000

Effective grid spacing dv^(1/3) = 0.1852

     iter     time        total  log10-change:  magmom
                         energy   eigst   dens
iter:   1 15:40:34    -7.130542   -1.14           +0.0000
iter:   2 15:40:36    -7.124061   -2.73  -1.59    +0.0000
iter:   3 15:40:37    -7.100840   -1.52  -1.62    +0.0000
iter:   4 15:40:40    -7.094334   -3.11  -1.92    +0.0000
iter:   5 15:40:43    -7.114476   -2.31  -2.02    +0.0000
iter:   6 15:40:46    -7.091150   -1.87  -1.69    +0.0000
iter:   7 15:40:50    -7.090971   -3.52  -2.54    +0.0000
iter:   8 15:40:53    -7.091067c  -4.13  -2.63    +0.0000
iter:   9 15:40:55    -7.091416c  -4.14  -2.57    +0.0000
iter:  10 15:40:57    -7.090708c  -3.52  -2.46    +0.0000
iter:  11 15:40:59    -7.090720c  -5.14  -3.61    +0.0000
iter:  12 15:41:03    -7.090723c  -6.03  -3.55    +0.0000
iter:  13 15:41:05    -7.090719c  -5.23  -3.52    +0.0000
iter:  14 15:41:06    -7.090722c  -5.64  -3.93    +0.0000
iter:  15 15:41:08    -7.090719c  -6.15  -3.60    +0.0000
iter:  16 15:41:11    -7.090719c  -6.28  -3.95    +0.0000
iter:  17 15:41:13    -7.090719c  -6.87  -4.16c   +0.0000
iter:  18 15:41:15    -7.090719c  -7.21  -4.09c   +0.0000
iter:  19 15:41:17    -7.090719c  -6.61  -3.99    +0.0000
iter:  20 15:41:18    -7.090719c  -8.13c -4.56c   +0.0000

Converged after 20 iterations.

Dipole moment: (0.000000, 0.000000, 0.335358) |e|*Ang

Total magnetic moment: (0.000000, 0.000000, 0.000000)
Local magnetic moments:
   0 O  ( 0.000000,  0.000000,  0.000000)
   1 H  ( 0.000000,  0.000000,  0.000000)

Energy contributions relative to reference atoms: (reference = -2040.037027)

Kinetic:        +10.701652
Potential:      -10.233702
External:        +0.000000
XC:              -7.490277
Entropy (-ST):   -0.224934
Local:           +0.044075
SIC:             +0.000000
--------------------------
Free energy:     -7.203186
Extrapolated:    -7.090719

Spin contamination: 0.000000 electrons
                   Up                     Down
 Band  Eigenvalues  Occupancy  Eigenvalues  Occupancy
    0    -25.21530    1.00000    -25.21530    1.00000
    1    -11.61808    1.00000    -11.61808    1.00000
    2     -8.35969    0.75000     -8.35969    0.75000
    3     -8.35969    0.75000     -8.35969    0.75000
    4     -0.62001    0.00000     -0.62001    0.00000

Fermi level: -8.24983

Gap: 7.740 eV
Transition (v -> c):
  (s=0, k=0, n=3, [0.00, 0.00, 0.00]) -> (s=0, k=0, n=4, [0.00, 0.00, 0.00])
No difference between direct/indirect transitions

Forces in eV/Ang:
  0 O     0.00000    0.00000   -5.16066
  1 H     0.00000    0.00000    5.16524

System changes: positions 

Initializing position-dependent things.

Density initialized from wave functions
       .------------------------.  
      /|                        |  
     / |                        |  
    /  |                        |  
   /   |                        |  
  /    |                        |  
 *     |                        |  
 |     |                        |  
 |     |         H              |  
 |     |                        |  
 |     |         O              |  
 |     |                        |  
 |     .------------------------.  
 |    /                        /   
 |   /                        /    
 |  /                        /     
 | /                        /      
 |/                        /       
 *------------------------*        

Atomic positions and initial magnetic moments

Positions:
   0 O      5.000000    5.000000    4.504895    ( 0.0000,  0.0000,  0.0000)
   1 H      5.000000    5.000000    5.494983    ( 0.0000,  0.0000,  0.0000)

Unit cell:
           periodic     x           y           z      points  spacing
  1. axis:    yes   10.000000    0.000000    0.000000    54     0.1852
  2. axis:    yes    0.000000   10.000000    0.000000    54     0.1852
  3. axis:    yes    0.000000    0.000000   10.000000    54     0.1852

  Lengths:  10.000000  10.000000  10.000000
  Angles:   90.000000  90.000000  90.000000

Effective grid spacing dv^(1/3) = 0.1852

     iter     time        total  log10-change:  magmom
                         energy   eigst   dens
iter:   1 15:41:20    -7.330442   -1.07           +0.0000
iter:   2 15:41:22    -7.323678   -2.66  -1.59    +0.0000
iter:   3 15:41:24    -7.323774   -1.26  -1.60    +0.0000
iter:   4 15:41:27    -7.300963   -2.73  -1.65    +0.0000
iter:   5 15:41:29    -7.312963   -2.94  -1.80    +0.0000
iter:   6 15:41:30    -7.289534   -1.76  -1.68    +0.0000
iter:   7 15:41:32    -7.288321   -3.39  -2.34    +0.0000
iter:   8 15:41:34    -7.288972c  -3.19  -2.68    +0.0000
iter:   9 15:41:39    -7.288232c  -3.46  -2.47    +0.0000
iter:  10 15:41:42    -7.288237c  -5.08  -3.62    +0.0000
iter:  11 15:41:43    -7.288244c  -5.05  -3.70    +0.0000
iter:  12 15:41:45    -7.288250c  -5.55  -3.46    +0.0000
iter:  13 15:41:47    -7.288248c  -6.78  -3.30    +0.0000
iter:  14 15:41:48    -7.288247c  -7.40c -3.33    +0.0000
iter:  15 15:41:50    -7.288240c  -5.95  -3.33    +0.0000
iter:  16 15:41:52    -7.288238c  -6.16  -3.55    +0.0000
iter:  17 15:41:53    -7.288237c  -6.31  -3.68    +0.0000
iter:  18 15:41:55    -7.288238c  -6.90  -3.77    +0.0000
iter:  19 15:41:57    -7.288238c  -7.14  -3.91    +0.0000
iter:  20 15:41:58    -7.288238c  -6.63  -4.02c   +0.0000
iter:  21 15:42:00    -7.288238c  -6.14  -4.09c   +0.0000
iter:  22 15:42:02    -7.288238c  -6.74  -3.94    +0.0000
iter:  23 15:42:03    -7.288238c  -6.67  -4.29c   +0.0000
iter:  24 15:42:05    -7.288238c  -6.81  -4.19c   +0.0000
iter:  25 15:42:06    -7.288238c  -8.56c -4.63c   +0.0000

Converged after 25 iterations.

Dipole moment: (0.000000, 0.000000, 0.346666) |e|*Ang

Total magnetic moment: (0.000000, 0.000000, 0.000000)
Local magnetic moments:
   0 O  ( 0.000000,  0.000000,  0.000000)
   1 H  ( 0.000000,  0.000000,  0.000000)

Energy contributions relative to reference atoms: (reference = -2040.037027)

Kinetic:         +6.201789
Potential:       -7.048891
External:        +0.000000
XC:              -6.379619
Entropy (-ST):   -0.224934
Local:           +0.050951
SIC:             +0.000000
--------------------------
Free energy:     -7.400705
Extrapolated:    -7.288238

Spin contamination: 0.000000 electrons
                   Up                     Down
 Band  Eigenvalues  Occupancy  Eigenvalues  Occupancy
    0    -24.52286    1.00000    -24.52286    1.00000
    1    -11.36896    1.00000    -11.36896    1.00000
    2     -8.23266    0.75000     -8.23266    0.75000
    3     -8.23266    0.75000     -8.23266    0.75000
    4     -0.78773    0.00000     -0.78773    0.00000

Fermi level: -8.12280

Gap: 7.445 eV
Transition (v -> c):
  (s=0, k=0, n=3, [0.00, 0.00, 0.00]) -> (s=0, k=0, n=4, [0.00, 0.00, 0.00])
No difference between direct/indirect transitions

Forces in eV/Ang:
  0 O    -0.00000    0.00000    0.02928
  1 H     0.00000    0.00000   -0.03939

Timing:                                      incl.     excl.
-------------------------------------------------------------------
Density initialized from wave functions:     0.622     0.278   0.0% |
 Symmetrize density:                         0.344     0.344   0.0% |
Forces:                                      0.695     0.695   0.0% |
Hamiltonian:                                 1.551     0.017   0.0% |
 Atomic:                                     0.067     0.002   0.0% |
  XC Correction:                             0.065     0.065   0.0% |
 Calculate atomic Hamiltonians:              0.085     0.085   0.0% |
 Communicate:                                0.000     0.000   0.0% |
 Initialize Hamiltonian:                     0.000     0.000   0.0% |
 Poisson:                                    0.022     0.022   0.0% |
 XC 3D grid:                                 1.359     1.359   0.0% |
LCAO initialization:                         0.115     0.032   0.0% |
 LCAO eigensolver:                           0.017     0.000   0.0% |
  Calculate projections:                     0.000     0.000   0.0% |
  DenseAtomicCorrection:                     0.000     0.000   0.0% |
  Distribute overlap matrix:                 0.000     0.000   0.0% |
  Orbital Layouts:                           0.010     0.010   0.0% |
  Potential matrix:                          0.006     0.006   0.0% |
 LCAO to grid:                               0.051     0.051   0.0% |
 Set positions (LCAO WFS):                   0.014     0.001   0.0% |
  Basic WFS set positions:                   0.000     0.000   0.0% |
  Basis functions set positions:             0.000     0.000   0.0% |
  P tci:                                     0.008     0.008   0.0% |
  ST tci:                                    0.000     0.000   0.0% |
  mktci:                                     0.004     0.004   0.0% |
PWDescriptor:                                0.079     0.079   0.0% |
Redistribute:                                0.001     0.001   0.0% |
SCF-cycle:                                  75.864     0.171   0.0% |
 Davidson:                                  23.497     2.496   0.0% |
  Apply H:                                   4.726     4.675   0.0% |
   HMM T:                                    0.051     0.051   0.0% |
  Subspace diag:                             4.246     0.017   0.0% |
   calc_h_matrix:                            4.120     0.079   0.0% |
    Apply H:                                 4.041     3.998   0.0% |
     HMM T:                                  0.044     0.044   0.0% |
   diagonalize:                              0.023     0.023   0.0% |
   rotate_psi:                               0.085     0.085   0.0% |
  calc. matrices:                           11.779     0.590   0.0% |
   Apply H:                                 11.188    11.090   0.1% |
    HMM T:                                   0.099     0.099   0.0% |
  diagonalize:                               0.046     0.046   0.0% |
  rotate_psi:                                0.205     0.205   0.0% |
 Density:                                   30.249     0.001   0.0% |
  Atomic density matrices:                   0.047     0.047   0.0% |
  Mix:                                      15.649    15.649   0.1% |
  Multipole moments:                         0.006     0.006   0.0% |
  Pseudo density:                           14.546     5.607   0.0% |
   Symmetrize density:                       8.939     8.939   0.1% |
 Hamiltonian:                               21.914     0.339   0.0% |
  Atomic:                                    1.060     0.033   0.0% |
   XC Correction:                            1.027     1.027   0.0% |
  Calculate atomic Hamiltonians:             1.395     1.395   0.0% |
  Communicate:                               0.000     0.000   0.0% |
  Poisson:                                   0.315     0.315   0.0% |
  XC 3D grid:                               18.805    18.805   0.1% |
 Orthonormalize:                             0.033     0.001   0.0% |
  calc_s_matrix:                             0.005     0.005   0.0% |
  inverse-cholesky:                          0.007     0.007   0.0% |
  projections:                               0.018     0.018   0.0% |
  rotate_psi_s:                              0.002     0.002   0.0% |
Set symmetry:                                0.009     0.009   0.0% |
Other:                                   15175.466 15175.466  99.5% |---------------------------------------|
-------------------------------------------------------------------
Total:                                             15254.402 100.0%

Memory usage: 3.17 GiB
Date: Tue Sep 30 18:40:45 2025
