2
Lattice="10.0 0.0 0.0 0.0 10.0 0.0 0.0 0.0 11.0" Properties=species:S:1:pos:R:3:initial_magmoms:R:1:magmoms:R:1:forces:R:3 energy=-7.39215280249384 free_energy=-7.461467544638525 dipole="8.526468629481427e-15 8.758701345219559e-15 0.3340148115029814" magmom=1.0000000181537254 pbc="F F F"
O        5.00000000       5.00000000       5.00597091       1.00000000       0.55686435       0.00000000       0.00000000      -0.00235867
H        5.00000000       5.00000000       5.99383159       0.00000000      -0.00582558       0.00000000       0.00000000      -0.00983353
