
  ___ ___ ___ _ _ _  
 |   |   |_  | | | | 
 | | | | | . | | | | 
 |__ |  _|___|_____|  25.7.0
 |___|_|             

User:   qchem@IFEOLUWA
Date:   Tue Sep 23 23:15:26 2025
Arch:   x86_64
Pid:    2526
CWD:    /home/qchem/projects/gpaw_calculations
Python: 3.12.3
gpaw:   /home/qchem/gpaw-venv/lib/python3.12/site-packages/gpaw
_gpaw:  /home/qchem/gpaw-venv/lib/python3.12/site-packages/
        _gpaw.cpython-312-x86_64-linux-gnu.so
ase:    /home/qchem/gpaw-venv/lib/python3.12/site-packages/ase (version 3.26.0)
numpy:  /home/qchem/gpaw-venv/lib/python3.12/site-packages/numpy (version 2.3.3)
scipy:  /home/qchem/gpaw-venv/lib/python3.12/site-packages/scipy (version 1.16.2)
libxc:  5.2.3
units:  Angstrom and eV
cores: 1
OpenMP: False
OMP_NUM_THREADS: 1

Input parameters:
  kpts: [12 12 12]
  mode: {ecut: 500.0,
         name: pw}

System changes: positions, numbers, cell, pbc, initial_charges, initial_magmoms 

Initialize ...

species:
  Pd:
    name: Palladium
    id: e532e18c0482708fc2e61045fa7bdb18
    Z: 46.0
    valence: 16
    core: 30
    charge: 0.0
    file: /home/qchem/gpaw-venv/lib/python3.12/site-packages/gpaw_data/setups/Pd.LDA.gz
    compensation charges: {type: gauss,
                           rc: 0.38,
                           lmax: 2}
    cutoffs: {filter: 2.38,
              core: 2.28}
    projectors:
      #              energy  rcut
      - 5s(0.00)    -3.604   1.228
      - 4p(6.00)   -51.371   1.360
      - 5p(0.00)    -0.356   1.360
      - 4d(10.00)    -4.308   1.228
      -  s          23.607   1.228
      -  d          22.904   1.228
  
    # Using partial waves for Pd as LCAO basis

Reference energy: -548392.312390  # eV

Spin-paired calculation

Convergence criteria:
 Maximum [total energy] change in last 3 cyles: 0.0005 eV / valence electron
 Maximum integral of absolute [dens]ity change: 0.0001 electrons / valence electron
 Maximum integral of absolute [eigenst]ate change: 4e-08 eV^2 / valence electron
 Maximum number of scf [iter]ations: 333
 (Square brackets indicate name in SCF output, whereas a 'c' in
 the SCF output indicates the quantity has converged.)

Symmetries present (total): 48

  ( 1  0  0)  ( 1  0  0)  ( 1  0  0)  ( 1  0  0)  ( 1  0  0)  ( 1  0  0)
  ( 0  1  0)  ( 0  1  0)  ( 0  0  1)  ( 0  0  1)  ( 0  0 -1)  ( 0  0 -1)
  ( 0  0  1)  ( 0  0 -1)  ( 0  1  0)  ( 0 -1  0)  ( 0  1  0)  ( 0 -1  0)

  ( 1  0  0)  ( 1  0  0)  ( 0  1  0)  ( 0  1  0)  ( 0  1  0)  ( 0  1  0)
  ( 0 -1  0)  ( 0 -1  0)  ( 1  0  0)  ( 1  0  0)  ( 0  0  1)  ( 0  0  1)
  ( 0  0  1)  ( 0  0 -1)  ( 0  0  1)  ( 0  0 -1)  ( 1  0  0)  (-1  0  0)

  ( 0  1  0)  ( 0  1  0)  ( 0  1  0)  ( 0  1  0)  ( 0  0  1)  ( 0  0  1)
  ( 0  0 -1)  ( 0  0 -1)  (-1  0  0)  (-1  0  0)  ( 1  0  0)  ( 1  0  0)
  ( 1  0  0)  (-1  0  0)  ( 0  0  1)  ( 0  0 -1)  ( 0  1  0)  ( 0 -1  0)

  ( 0  0  1)  ( 0  0  1)  ( 0  0  1)  ( 0  0  1)  ( 0  0  1)  ( 0  0  1)
  ( 0  1  0)  ( 0  1  0)  ( 0 -1  0)  ( 0 -1  0)  (-1  0  0)  (-1  0  0)
  ( 1  0  0)  (-1  0  0)  ( 1  0  0)  (-1  0  0)  ( 0  1  0)  ( 0 -1  0)

  ( 0  0 -1)  ( 0  0 -1)  ( 0  0 -1)  ( 0  0 -1)  ( 0  0 -1)  ( 0  0 -1)
  ( 1  0  0)  ( 1  0  0)  ( 0  1  0)  ( 0  1  0)  ( 0 -1  0)  ( 0 -1  0)
  ( 0  1  0)  ( 0 -1  0)  ( 1  0  0)  (-1  0  0)  ( 1  0  0)  (-1  0  0)

  ( 0  0 -1)  ( 0  0 -1)  ( 0 -1  0)  ( 0 -1  0)  ( 0 -1  0)  ( 0 -1  0)
  (-1  0  0)  (-1  0  0)  ( 1  0  0)  ( 1  0  0)  ( 0  0  1)  ( 0  0  1)
  ( 0  1  0)  ( 0 -1  0)  ( 0  0  1)  ( 0  0 -1)  ( 1  0  0)  (-1  0  0)

  ( 0 -1  0)  ( 0 -1  0)  ( 0 -1  0)  ( 0 -1  0)  (-1  0  0)  (-1  0  0)
  ( 0  0 -1)  ( 0  0 -1)  (-1  0  0)  (-1  0  0)  ( 0  1  0)  ( 0  1  0)
  ( 1  0  0)  (-1  0  0)  ( 0  0  1)  ( 0  0 -1)  ( 0  0  1)  ( 0  0 -1)

  (-1  0  0)  (-1  0  0)  (-1  0  0)  (-1  0  0)  (-1  0  0)  (-1  0  0)
  ( 0  0  1)  ( 0  0  1)  ( 0  0 -1)  ( 0  0 -1)  ( 0 -1  0)  ( 0 -1  0)
  ( 0  1  0)  ( 0 -1  0)  ( 0  1  0)  ( 0 -1  0)  ( 0  0  1)  ( 0  0 -1)

1728 k-points: 12 x 12 x 12 Monkhorst-Pack grid
56 k-points in the irreducible part of the Brillouin zone
       k-points in crystal coordinates                weights
   0:     0.04166667    0.04166667    0.04166667          8/1728
   1:     0.12500000    0.04166667    0.04166667         24/1728
   2:     0.12500000    0.12500000    0.04166667         24/1728
   3:     0.12500000    0.12500000    0.12500000          8/1728
   4:     0.20833333    0.04166667    0.04166667         24/1728
   5:     0.20833333    0.12500000    0.04166667         48/1728
   6:     0.20833333    0.12500000    0.12500000         24/1728
   7:     0.20833333    0.20833333    0.04166667         24/1728
   8:     0.20833333    0.20833333    0.12500000         24/1728
   9:     0.20833333    0.20833333    0.20833333          8/1728
          ...
  55:     0.45833333    0.45833333    0.45833333          8/1728

Wave functions: Plane wave expansion
  Cutoff energy: 500.000 eV
  Number of coefficients (min, max): 1588, 1616
  Pulay-stress correction: 0.000000 eV/Ang^3 (de/decut=0.000000)
  Using Numpy's FFT
  ScaLapack parameters: grid=1x1, blocksize=None
  Wavefunction extrapolation:
    Improved wavefunction reuse through dual PAW basis 

Occupation numbers: Fermi-Dirac:
  width: 0.1000  # eV
 

Eigensolver
   Davidson(niter=2) 

Densities:
  Coarse grid: 21*21*21 grid
  Fine grid: 42*42*42 grid
  Total Charge: 0.000000 

Density mixing:
  Method: separate
  Backend: pulay
  Linear mixing parameter: 0.05
  old densities: 5
  Damping of long wavelength oscillations: 50 

Hamiltonian:
  XC and Coulomb potentials evaluated on a 42*42*42 grid
  Using the LDA Exchange-Correlation functional
  External potential:
    NoExternalPotential
 

Memory estimate:
  Process memory now: 325.32 MiB
  Calculator: 80.94 MiB
    Density: 4.23 MiB
      Arrays: 1.84 MiB
      Localized functions: 1.69 MiB
      Mixer: 0.71 MiB
    Hamiltonian: 1.24 MiB
      Arrays: 1.20 MiB
      XC: 0.00 MiB
      Poisson: 0.00 MiB
      vbar: 0.03 MiB
    Wavefunctions: 75.47 MiB
      Arrays psit_nG: 59.38 MiB
      Eigensolver: 1.47 MiB
      Projections: 2.65 MiB
      Projectors: 10.25 MiB
      PW-descriptor: 1.73 MiB

Total number of cores used: 1

Number of atoms: 4
Number of atomic orbitals: 48
Number of bands in calculation: 43
Number of valence electrons: 64
Bands to converge: occupied

... initialized

Initializing position-dependent things.

Density initialized from atomic densities
Creating initial wave functions:
  43 bands from LCAO basis set

   .---------.  
  /|         |  
 * |         |  
 |Pd         |  
 | |  Pd     |  
 | .---------.  
 |/    Pd   /   
 Pd--------*    

Atomic positions and initial magnetic moments

Positions:
   0 Pd     0.000000    0.000000    0.000000    ( 0.0000,  0.0000,  0.0000)
   1 Pd     0.000000    1.989000    1.989000    ( 0.0000,  0.0000,  0.0000)
   2 Pd     1.989000    0.000000    1.989000    ( 0.0000,  0.0000,  0.0000)
   3 Pd     1.989000    1.989000    0.000000    ( 0.0000,  0.0000,  0.0000)

Unit cell:
           periodic     x           y           z      points  spacing
  1. axis:    yes    3.978000    0.000000    0.000000    21     0.1894
  2. axis:    yes    0.000000    3.978000    0.000000    21     0.1894
  3. axis:    yes    0.000000    0.000000    3.978000    21     0.1894

  Lengths:   3.978000   3.978000   3.978000
  Angles:   90.000000  90.000000  90.000000

Effective grid spacing dv^(1/3) = 0.1894

     iter     time        total  log10-change:
                         energy   eigst   dens
iter:   1 23:16:19   -25.419543
iter:   2 23:16:41   -24.272177   -1.55  -1.20
iter:   3 23:17:04   -21.651154   -0.27  -1.24
iter:   4 23:17:29   -20.902935   -2.29  -1.64
iter:   5 23:17:58   -23.253374   -1.37  -1.89
iter:   6 23:18:21   -20.495745   -1.01  -1.44
iter:   7 23:18:42   -20.499264   -2.85  -2.92
iter:   8 23:19:06   -20.502759c  -3.57  -2.88
iter:   9 23:19:28   -20.500205c  -4.59  -2.77
iter:  10 23:19:51   -20.498205c  -4.40  -2.93
iter:  11 23:20:16   -20.499016c  -3.90  -3.30
iter:  12 23:20:42   -20.497928c  -4.55  -3.14
iter:  13 23:21:09   -20.497921c  -5.93  -4.34c
iter:  14 23:21:32   -20.497926c  -7.12  -4.72c
iter:  15 23:21:53   -20.497923c  -7.83c -4.61c

Converged after 15 iterations.

Dipole moment: (0.000000, 0.000000, 0.000000) |e|*Ang

Energy contributions relative to reference atoms: (reference = -548392.312390)

Kinetic:        -34.868672
Potential:      +13.622228
External:        +0.000000
XC:              +1.702119
Entropy (-ST):   -0.267511
Local:           -0.819842
SIC:             +0.000000
--------------------------
Free energy:    -20.631679
Extrapolated:   -20.497923

Showing only first 2 kpts
 Kpt  Band  Eigenvalues  Occupancy
  0    30      8.36487    0.23766
  0    31      8.36488    0.23764
  0    32      8.36488    0.23764
  0    33     11.41979    0.00000

  1    30      8.25440    0.57856
  1    31      8.35731    0.25395
  1    32      8.35733    0.25392
  1    33     10.68746    0.00000


Fermi level: 8.16451

No gap
No difference between direct/indirect transitions
