
  ___ ___ ___ _ _ _  
 |   |   |_  | | | | 
 | | | | | . | | | | 
 |__ |  _|___|_____|  25.7.0
 |___|_|             

User:   qchem@IFEOLUWA
Date:   Tue Sep 23 22:43:24 2025
Arch:   x86_64
Pid:    2526
CWD:    /home/qchem/projects/gpaw_calculations
Python: 3.12.3
gpaw:   /home/qchem/gpaw-venv/lib/python3.12/site-packages/gpaw
_gpaw:  /home/qchem/gpaw-venv/lib/python3.12/site-packages/
        _gpaw.cpython-312-x86_64-linux-gnu.so
ase:    /home/qchem/gpaw-venv/lib/python3.12/site-packages/ase (version 3.26.0)
numpy:  /home/qchem/gpaw-venv/lib/python3.12/site-packages/numpy (version 2.3.3)
scipy:  /home/qchem/gpaw-venv/lib/python3.12/site-packages/scipy (version 1.16.2)
libxc:  5.2.3
units:  Angstrom and eV
cores: 1
OpenMP: False
OMP_NUM_THREADS: 1

Input parameters:
  kpts: [12 12 12]
  mode: {ecut: 500.0,
         name: pw}

System changes: positions, numbers, cell, pbc, initial_charges, initial_magmoms 

Initialize ...

species:
  Pd:
    name: Palladium
    id: e532e18c0482708fc2e61045fa7bdb18
    Z: 46.0
    valence: 16
    core: 30
    charge: 0.0
    file: /home/qchem/gpaw-venv/lib/python3.12/site-packages/gpaw_data/setups/Pd.LDA.gz
    compensation charges: {type: gauss,
                           rc: 0.38,
                           lmax: 2}
    cutoffs: {filter: 2.38,
              core: 2.28}
    projectors:
      #              energy  rcut
      - 5s(0.00)    -3.604   1.228
      - 4p(6.00)   -51.371   1.360
      - 5p(0.00)    -0.356   1.360
      - 4d(10.00)    -4.308   1.228
      -  s          23.607   1.228
      -  d          22.904   1.228
  
    # Using partial waves for Pd as LCAO basis

Reference energy: -548392.312390  # eV

Spin-paired calculation

Convergence criteria:
 Maximum [total energy] change in last 3 cyles: 0.0005 eV / valence electron
 Maximum integral of absolute [dens]ity change: 0.0001 electrons / valence electron
 Maximum integral of absolute [eigenst]ate change: 4e-08 eV^2 / valence electron
 Maximum number of scf [iter]ations: 333
 (Square brackets indicate name in SCF output, whereas a 'c' in
 the SCF output indicates the quantity has converged.)

Symmetries present (total): 48

  ( 1  0  0)  ( 1  0  0)  ( 1  0  0)  ( 1  0  0)  ( 1  0  0)  ( 1  0  0)
  ( 0  1  0)  ( 0  1  0)  ( 0  0  1)  ( 0  0  1)  ( 0  0 -1)  ( 0  0 -1)
  ( 0  0  1)  ( 0  0 -1)  ( 0  1  0)  ( 0 -1  0)  ( 0  1  0)  ( 0 -1  0)

  ( 1  0  0)  ( 1  0  0)  ( 0  1  0)  ( 0  1  0)  ( 0  1  0)  ( 0  1  0)
  ( 0 -1  0)  ( 0 -1  0)  ( 1  0  0)  ( 1  0  0)  ( 0  0  1)  ( 0  0  1)
  ( 0  0  1)  ( 0  0 -1)  ( 0  0  1)  ( 0  0 -1)  ( 1  0  0)  (-1  0  0)

  ( 0  1  0)  ( 0  1  0)  ( 0  1  0)  ( 0  1  0)  ( 0  0  1)  ( 0  0  1)
  ( 0  0 -1)  ( 0  0 -1)  (-1  0  0)  (-1  0  0)  ( 1  0  0)  ( 1  0  0)
  ( 1  0  0)  (-1  0  0)  ( 0  0  1)  ( 0  0 -1)  ( 0  1  0)  ( 0 -1  0)

  ( 0  0  1)  ( 0  0  1)  ( 0  0  1)  ( 0  0  1)  ( 0  0  1)  ( 0  0  1)
  ( 0  1  0)  ( 0  1  0)  ( 0 -1  0)  ( 0 -1  0)  (-1  0  0)  (-1  0  0)
  ( 1  0  0)  (-1  0  0)  ( 1  0  0)  (-1  0  0)  ( 0  1  0)  ( 0 -1  0)

  ( 0  0 -1)  ( 0  0 -1)  ( 0  0 -1)  ( 0  0 -1)  ( 0  0 -1)  ( 0  0 -1)
  ( 1  0  0)  ( 1  0  0)  ( 0  1  0)  ( 0  1  0)  ( 0 -1  0)  ( 0 -1  0)
  ( 0  1  0)  ( 0 -1  0)  ( 1  0  0)  (-1  0  0)  ( 1  0  0)  (-1  0  0)

  ( 0  0 -1)  ( 0  0 -1)  ( 0 -1  0)  ( 0 -1  0)  ( 0 -1  0)  ( 0 -1  0)
  (-1  0  0)  (-1  0  0)  ( 1  0  0)  ( 1  0  0)  ( 0  0  1)  ( 0  0  1)
  ( 0  1  0)  ( 0 -1  0)  ( 0  0  1)  ( 0  0 -1)  ( 1  0  0)  (-1  0  0)

  ( 0 -1  0)  ( 0 -1  0)  ( 0 -1  0)  ( 0 -1  0)  (-1  0  0)  (-1  0  0)
  ( 0  0 -1)  ( 0  0 -1)  (-1  0  0)  (-1  0  0)  ( 0  1  0)  ( 0  1  0)
  ( 1  0  0)  (-1  0  0)  ( 0  0  1)  ( 0  0 -1)  ( 0  0  1)  ( 0  0 -1)

  (-1  0  0)  (-1  0  0)  (-1  0  0)  (-1  0  0)  (-1  0  0)  (-1  0  0)
  ( 0  0  1)  ( 0  0  1)  ( 0  0 -1)  ( 0  0 -1)  ( 0 -1  0)  ( 0 -1  0)
  ( 0  1  0)  ( 0 -1  0)  ( 0  1  0)  ( 0 -1  0)  ( 0  0  1)  ( 0  0 -1)

1728 k-points: 12 x 12 x 12 Monkhorst-Pack grid
56 k-points in the irreducible part of the Brillouin zone
       k-points in crystal coordinates                weights
   0:     0.04166667    0.04166667    0.04166667          8/1728
   1:     0.12500000    0.04166667    0.04166667         24/1728
   2:     0.12500000    0.12500000    0.04166667         24/1728
   3:     0.12500000    0.12500000    0.12500000          8/1728
   4:     0.20833333    0.04166667    0.04166667         24/1728
   5:     0.20833333    0.12500000    0.04166667         48/1728
   6:     0.20833333    0.12500000    0.12500000         24/1728
   7:     0.20833333    0.20833333    0.04166667         24/1728
   8:     0.20833333    0.20833333    0.12500000         24/1728
   9:     0.20833333    0.20833333    0.20833333          8/1728
          ...
  55:     0.45833333    0.45833333    0.45833333          8/1728

Wave functions: Plane wave expansion
  Cutoff energy: 500.000 eV
  Number of coefficients (min, max): 1484, 1518
  Pulay-stress correction: 0.000000 eV/Ang^3 (de/decut=0.000000)
  Using Numpy's FFT
  ScaLapack parameters: grid=1x1, blocksize=None
  Wavefunction extrapolation:
    Improved wavefunction reuse through dual PAW basis 

Occupation numbers: Fermi-Dirac:
  width: 0.1000  # eV
 

Eigensolver
   Davidson(niter=2) 

Densities:
  Coarse grid: 21*21*21 grid
  Fine grid: 42*42*42 grid
  Total Charge: 0.000000 

Density mixing:
  Method: separate
  Backend: pulay
  Linear mixing parameter: 0.05
  old densities: 5
  Damping of long wavelength oscillations: 50 

Hamiltonian:
  XC and Coulomb potentials evaluated on a 42*42*42 grid
  Using the LDA Exchange-Correlation functional
  External potential:
    NoExternalPotential
 

Memory estimate:
  Process memory now: 313.61 MiB
  Calculator: 76.48 MiB
    Density: 4.14 MiB
      Arrays: 1.84 MiB
      Localized functions: 1.59 MiB
      Mixer: 0.71 MiB
    Hamiltonian: 1.23 MiB
      Arrays: 1.20 MiB
      XC: 0.00 MiB
      Poisson: 0.00 MiB
      vbar: 0.03 MiB
    Wavefunctions: 71.11 MiB
      Arrays psit_nG: 55.78 MiB
      Eigensolver: 1.40 MiB
      Projections: 2.65 MiB
      Projectors: 9.65 MiB
      PW-descriptor: 1.65 MiB

Total number of cores used: 1

Number of atoms: 4
Number of atomic orbitals: 48
Number of bands in calculation: 43
Number of valence electrons: 64
Bands to converge: occupied

... initialized

Initializing position-dependent things.

Density initialized from atomic densities
Creating initial wave functions:
  43 bands from LCAO basis set

   .---------.  
  /|         |  
 * |         |  
 | |         |  
 |Pd         |  
 | .--Pd-----.  
 |/    Pd   /   
 Pd--------*    

Atomic positions and initial magnetic moments

Positions:
   0 Pd     0.000000    0.000000    0.000000    ( 0.0000,  0.0000,  0.0000)
   1 Pd     0.000000    1.950000    1.950000    ( 0.0000,  0.0000,  0.0000)
   2 Pd     1.950000    0.000000    1.950000    ( 0.0000,  0.0000,  0.0000)
   3 Pd     1.950000    1.950000    0.000000    ( 0.0000,  0.0000,  0.0000)

Unit cell:
           periodic     x           y           z      points  spacing
  1. axis:    yes    3.900000    0.000000    0.000000    21     0.1857
  2. axis:    yes    0.000000    3.900000    0.000000    21     0.1857
  3. axis:    yes    0.000000    0.000000    3.900000    21     0.1857

  Lengths:   3.900000   3.900000   3.900000
  Angles:   90.000000  90.000000  90.000000

Effective grid spacing dv^(1/3) = 0.1857

     iter     time        total  log10-change:
                         energy   eigst   dens
iter:   1 22:44:16   -25.573048
iter:   2 22:44:52   -24.526325   -1.44  -1.22
iter:   3 22:45:18   -22.104599   -0.30  -1.26
iter:   4 22:45:55   -21.279718   -2.26  -1.61
iter:   5 22:46:57   -22.995101   -1.62  -1.86
iter:   6 22:47:18   -20.813556   -1.10  -1.50
iter:   7 22:47:40   -20.814647   -3.01  -2.86
iter:   8 22:48:11   -20.816984c  -3.78  -2.87
iter:   9 22:49:52   -20.815055c  -4.70  -2.79
iter:  10 22:51:47   -20.812501c  -4.31  -2.91
iter:  11 22:52:21   -20.812363c  -4.48  -3.36
iter:  12 22:53:46   -20.812280c  -5.86  -3.79
iter:  13 22:54:15   -20.812278c  -7.07  -4.67c
iter:  14 22:54:42   -20.812284c  -7.12  -4.78c
iter:  15 22:55:24   -20.812279c  -7.50c -4.56c

Converged after 15 iterations.

Dipole moment: (0.000000, 0.000000, 0.000000) |e|*Ang

Energy contributions relative to reference atoms: (reference = -548392.312390)

Kinetic:        -20.940820
Potential:       +2.148443
External:        +0.000000
XC:              -1.078496
Entropy (-ST):   -0.252363
Local:           -0.815225
SIC:             +0.000000
--------------------------
Free energy:    -20.938461
Extrapolated:   -20.812279

Showing only first 2 kpts
 Kpt  Band  Eigenvalues  Occupancy
  0    30      9.34924    0.17802
  0    31      9.34924    0.17802
  0    32      9.34924    0.17802
  0    33     12.38552    0.00000

  1    30      9.22608    0.50167
  1    31      9.34090    0.19202
  1    32      9.34090    0.19201
  1    33     11.64789    0.00000


Fermi level: 9.11666

No gap
No difference between direct/indirect transitions
Timing:                              incl.     excl.
-----------------------------------------------------------
Hamiltonian:                         0.088     0.001   0.0% |
 Atomic:                             0.069     0.001   0.0% |
  XC Correction:                     0.068     0.068   0.0% |
 Calculate atomic Hamiltonians:      0.007     0.007   0.0% |
 Communicate:                        0.000     0.000   0.0% |
 Initialize Hamiltonian:             0.000     0.000   0.0% |
 Poisson:                            0.000     0.000   0.0% |
 XC 3D grid:                         0.010     0.010   0.0% |
LCAO initialization:                21.230     0.070   0.0% |
 LCAO eigensolver:                   5.272     0.004   0.0% |
  Calculate projections:             0.020     0.020   0.0% |
  DenseAtomicCorrection:             0.038     0.038   0.0% |
  Distribute overlap matrix:         0.005     0.005   0.0% |
  Orbital Layouts:                   2.697     2.697   0.4% |
  Potential matrix:                  1.392     1.392   0.2% |
  Sum over cells:                    1.116     1.116   0.2% |
 LCAO to grid:                      14.739    14.739   2.0% ||
 Set positions (LCAO WFS):           1.149     0.182   0.0% |
  Basic WFS set positions:           0.008     0.008   0.0% |
  Basis functions set positions:     0.000     0.000   0.0% |
  P tci:                             0.551     0.551   0.1% |
  ST tci:                            0.387     0.387   0.1% |
  mktci:                             0.020     0.020   0.0% |
PWDescriptor:                        0.042     0.042   0.0% |
SCF-cycle:                         697.494     1.392   0.2% |
 Davidson:                         663.594    29.813   4.1% |-|
  Apply H:                          82.596    79.999  11.1% |---|
   HMM T:                            2.596     2.596   0.4% |
  Subspace diag:                    93.770     0.272   0.0% |
   calc_h_matrix:                   87.814     3.321   0.5% |
    Apply H:                        84.493    81.361  11.3% |----|
     HMM T:                          3.132     3.132   0.4% |
   diagonalize:                      1.465     1.465   0.2% |
   rotate_psi:                       4.219     4.219   0.6% |
  calc. matrices:                  137.752    16.938   2.4% ||
   Apply H:                        120.813   116.991  16.3% |------|
    HMM T:                           3.823     3.823   0.5% |
  diagonalize:                     309.410   309.410  43.0% |----------------|
  rotate_psi:                       10.253    10.253   1.4% ||
 Density:                           30.034     0.000   0.0% |
  Atomic density matrices:           0.215     0.215   0.0% |
  Mix:                               0.220     0.220   0.0% |
  Multipole moments:                 0.004     0.004   0.0% |
  Pseudo density:                   29.594    28.893   4.0% |-|
   Symmetrize density:               0.701     0.701   0.1% |
 Hamiltonian:                        1.795     0.022   0.0% |
  Atomic:                            1.448     0.021   0.0% |
   XC Correction:                    1.427     1.427   0.2% |
  Calculate atomic Hamiltonians:     0.109     0.109   0.0% |
  Communicate:                       0.000     0.000   0.0% |
  Poisson:                           0.013     0.013   0.0% |
  XC 3D grid:                        0.203     0.203   0.0% |
 Orthonormalize:                     0.679     0.019   0.0% |
  calc_s_matrix:                     0.166     0.166   0.0% |
  inverse-cholesky:                  0.024     0.024   0.0% |
  projections:                       0.307     0.307   0.0% |
  rotate_psi_s:                      0.165     0.165   0.0% |
Set symmetry:                        0.163     0.163   0.0% |
Other:                               0.514     0.514   0.1% |
-----------------------------------------------------------
Total:                                       719.531 100.0%

Memory usage: 317.75 MiB
Date: Tue Sep 23 22:55:24 2025
