
  ___ ___ ___ _ _ _  
 |   |   |_  | | | | 
 | | | | | . | | | | 
 |__ |  _|___|_____|  25.7.0
 |___|_|             

User:   qchem@IFEOLUWA
Date:   Tue Sep 23 22:30:19 2025
Arch:   x86_64
Pid:    2526
CWD:    /home/qchem/projects/gpaw_calculations
Python: 3.12.3
gpaw:   /home/qchem/gpaw-venv/lib/python3.12/site-packages/gpaw
_gpaw:  /home/qchem/gpaw-venv/lib/python3.12/site-packages/
        _gpaw.cpython-312-x86_64-linux-gnu.so
ase:    /home/qchem/gpaw-venv/lib/python3.12/site-packages/ase (version 3.26.0)
numpy:  /home/qchem/gpaw-venv/lib/python3.12/site-packages/numpy (version 2.3.3)
scipy:  /home/qchem/gpaw-venv/lib/python3.12/site-packages/scipy (version 1.16.2)
libxc:  5.2.3
units:  Angstrom and eV
cores: 1
OpenMP: False
OMP_NUM_THREADS: 1

Input parameters:
  kpts: [12 12 12]
  mode: {ecut: 500.0,
         name: pw}

System changes: positions, numbers, cell, pbc, initial_charges, initial_magmoms 

Initialize ...

species:
  Pd:
    name: Palladium
    id: e532e18c0482708fc2e61045fa7bdb18
    Z: 46.0
    valence: 16
    core: 30
    charge: 0.0
    file: /home/qchem/gpaw-venv/lib/python3.12/site-packages/gpaw_data/setups/Pd.LDA.gz
    compensation charges: {type: gauss,
                           rc: 0.38,
                           lmax: 2}
    cutoffs: {filter: 2.38,
              core: 2.28}
    projectors:
      #              energy  rcut
      - 5s(0.00)    -3.604   1.228
      - 4p(6.00)   -51.371   1.360
      - 5p(0.00)    -0.356   1.360
      - 4d(10.00)    -4.308   1.228
      -  s          23.607   1.228
      -  d          22.904   1.228
  
    # Using partial waves for Pd as LCAO basis

Reference energy: -548392.312390  # eV

Spin-paired calculation

Convergence criteria:
 Maximum [total energy] change in last 3 cyles: 0.0005 eV / valence electron
 Maximum integral of absolute [dens]ity change: 0.0001 electrons / valence electron
 Maximum integral of absolute [eigenst]ate change: 4e-08 eV^2 / valence electron
 Maximum number of scf [iter]ations: 333
 (Square brackets indicate name in SCF output, whereas a 'c' in
 the SCF output indicates the quantity has converged.)

Symmetries present (total): 48

  ( 1  0  0)  ( 1  0  0)  ( 1  0  0)  ( 1  0  0)  ( 1  0  0)  ( 1  0  0)
  ( 0  1  0)  ( 0  1  0)  ( 0  0  1)  ( 0  0  1)  ( 0  0 -1)  ( 0  0 -1)
  ( 0  0  1)  ( 0  0 -1)  ( 0  1  0)  ( 0 -1  0)  ( 0  1  0)  ( 0 -1  0)

  ( 1  0  0)  ( 1  0  0)  ( 0  1  0)  ( 0  1  0)  ( 0  1  0)  ( 0  1  0)
  ( 0 -1  0)  ( 0 -1  0)  ( 1  0  0)  ( 1  0  0)  ( 0  0  1)  ( 0  0  1)
  ( 0  0  1)  ( 0  0 -1)  ( 0  0  1)  ( 0  0 -1)  ( 1  0  0)  (-1  0  0)

  ( 0  1  0)  ( 0  1  0)  ( 0  1  0)  ( 0  1  0)  ( 0  0  1)  ( 0  0  1)
  ( 0  0 -1)  ( 0  0 -1)  (-1  0  0)  (-1  0  0)  ( 1  0  0)  ( 1  0  0)
  ( 1  0  0)  (-1  0  0)  ( 0  0  1)  ( 0  0 -1)  ( 0  1  0)  ( 0 -1  0)

  ( 0  0  1)  ( 0  0  1)  ( 0  0  1)  ( 0  0  1)  ( 0  0  1)  ( 0  0  1)
  ( 0  1  0)  ( 0  1  0)  ( 0 -1  0)  ( 0 -1  0)  (-1  0  0)  (-1  0  0)
  ( 1  0  0)  (-1  0  0)  ( 1  0  0)  (-1  0  0)  ( 0  1  0)  ( 0 -1  0)

  ( 0  0 -1)  ( 0  0 -1)  ( 0  0 -1)  ( 0  0 -1)  ( 0  0 -1)  ( 0  0 -1)
  ( 1  0  0)  ( 1  0  0)  ( 0  1  0)  ( 0  1  0)  ( 0 -1  0)  ( 0 -1  0)
  ( 0  1  0)  ( 0 -1  0)  ( 1  0  0)  (-1  0  0)  ( 1  0  0)  (-1  0  0)

  ( 0  0 -1)  ( 0  0 -1)  ( 0 -1  0)  ( 0 -1  0)  ( 0 -1  0)  ( 0 -1  0)
  (-1  0  0)  (-1  0  0)  ( 1  0  0)  ( 1  0  0)  ( 0  0  1)  ( 0  0  1)
  ( 0  1  0)  ( 0 -1  0)  ( 0  0  1)  ( 0  0 -1)  ( 1  0  0)  (-1  0  0)

  ( 0 -1  0)  ( 0 -1  0)  ( 0 -1  0)  ( 0 -1  0)  (-1  0  0)  (-1  0  0)
  ( 0  0 -1)  ( 0  0 -1)  (-1  0  0)  (-1  0  0)  ( 0  1  0)  ( 0  1  0)
  ( 1  0  0)  (-1  0  0)  ( 0  0  1)  ( 0  0 -1)  ( 0  0  1)  ( 0  0 -1)

  (-1  0  0)  (-1  0  0)  (-1  0  0)  (-1  0  0)  (-1  0  0)  (-1  0  0)
  ( 0  0  1)  ( 0  0  1)  ( 0  0 -1)  ( 0  0 -1)  ( 0 -1  0)  ( 0 -1  0)
  ( 0  1  0)  ( 0 -1  0)  ( 0  1  0)  ( 0 -1  0)  ( 0  0  1)  ( 0  0 -1)

1728 k-points: 12 x 12 x 12 Monkhorst-Pack grid
56 k-points in the irreducible part of the Brillouin zone
       k-points in crystal coordinates                weights
   0:     0.04166667    0.04166667    0.04166667          8/1728
   1:     0.12500000    0.04166667    0.04166667         24/1728
   2:     0.12500000    0.12500000    0.04166667         24/1728
   3:     0.12500000    0.12500000    0.12500000          8/1728
   4:     0.20833333    0.04166667    0.04166667         24/1728
   5:     0.20833333    0.12500000    0.04166667         48/1728
   6:     0.20833333    0.12500000    0.12500000         24/1728
   7:     0.20833333    0.20833333    0.04166667         24/1728
   8:     0.20833333    0.20833333    0.12500000         24/1728
   9:     0.20833333    0.20833333    0.20833333          8/1728
          ...
  55:     0.45833333    0.45833333    0.45833333          8/1728

Wave functions: Plane wave expansion
  Cutoff energy: 500.000 eV
  Number of coefficients (min, max): 1451, 1486
  Pulay-stress correction: 0.000000 eV/Ang^3 (de/decut=0.000000)
  Using Numpy's FFT
  ScaLapack parameters: grid=1x1, blocksize=None
  Wavefunction extrapolation:
    Improved wavefunction reuse through dual PAW basis 

Occupation numbers: Fermi-Dirac:
  width: 0.1000  # eV
 

Eigensolver
   Davidson(niter=2) 

Densities:
  Coarse grid: 20*20*20 grid
  Fine grid: 40*40*40 grid
  Total Charge: 0.000000 

Density mixing:
  Method: separate
  Backend: pulay
  Linear mixing parameter: 0.05
  old densities: 5
  Damping of long wavelength oscillations: 50 

Hamiltonian:
  XC and Coulomb potentials evaluated on a 40*40*40 grid
  Using the LDA Exchange-Correlation functional
  External potential:
    NoExternalPotential
 

Memory estimate:
  Process memory now: 311.41 MiB
  Calculator: 74.47 MiB
    Density: 3.76 MiB
      Arrays: 1.59 MiB
      Localized functions: 1.56 MiB
      Mixer: 0.61 MiB
    Hamiltonian: 1.07 MiB
      Arrays: 1.04 MiB
      XC: 0.00 MiB
      Poisson: 0.00 MiB
      vbar: 0.03 MiB
    Wavefunctions: 69.64 MiB
      Arrays psit_nG: 54.60 MiB
      Eigensolver: 1.37 MiB
      Projections: 2.65 MiB
      Projectors: 9.45 MiB
      PW-descriptor: 1.57 MiB

Total number of cores used: 1

Number of atoms: 4
Number of atomic orbitals: 48
Number of bands in calculation: 43
Number of valence electrons: 64
Bands to converge: occupied

... initialized

Initializing position-dependent things.

Density initialized from atomic densities
Creating initial wave functions:
  43 bands from LCAO basis set

   .---------.  
  /|         |  
 * |         |  
 |Pd         |  
 | |  Pd     |  
 | .---------.  
 |/    Pd   /   
 Pd--------*    

Atomic positions and initial magnetic moments

Positions:
   0 Pd     0.000000    0.000000    0.000000    ( 0.0000,  0.0000,  0.0000)
   1 Pd     0.000000    1.937000    1.937000    ( 0.0000,  0.0000,  0.0000)
   2 Pd     1.937000    0.000000    1.937000    ( 0.0000,  0.0000,  0.0000)
   3 Pd     1.937000    1.937000    0.000000    ( 0.0000,  0.0000,  0.0000)

Unit cell:
           periodic     x           y           z      points  spacing
  1. axis:    yes    3.874000    0.000000    0.000000    20     0.1937
  2. axis:    yes    0.000000    3.874000    0.000000    20     0.1937
  3. axis:    yes    0.000000    0.000000    3.874000    20     0.1937

  Lengths:   3.874000   3.874000   3.874000
  Angles:   90.000000  90.000000  90.000000

Effective grid spacing dv^(1/3) = 0.1937

     iter     time        total  log10-change:
                         energy   eigst   dens
iter:   1 22:31:01   -25.566779
iter:   2 22:32:08   -24.554142   -1.40  -1.22
iter:   3 22:33:28   -22.186941   -0.31  -1.26
iter:   4 22:34:13   -21.366685   -2.29  -1.61
iter:   5 22:35:43   -22.987762   -1.68  -1.84
iter:   6 22:37:19   -20.869103   -1.11  -1.51
iter:   7 22:38:03   -20.869082   -3.05  -2.82
iter:   8 22:38:24   -20.871345c  -3.80  -2.87
iter:   9 22:38:50   -20.869657c  -4.72  -2.80
iter:  10 22:39:17   -20.866953c  -4.34  -2.90
iter:  11 22:39:51   -20.866718c  -4.62  -3.34
iter:  12 22:40:43   -20.866704c  -6.58  -4.24c
iter:  13 22:41:48   -20.866701c  -7.19  -4.58c
iter:  14 22:42:30   -20.866725c  -6.30  -4.75c
iter:  15 22:43:03   -20.866705c  -6.71  -4.15c
iter:  16 22:43:24   -20.866702c  -7.59c -4.81c

Converged after 16 iterations.

Dipole moment: (-0.000000, -0.000000, -0.000000) |e|*Ang

Energy contributions relative to reference atoms: (reference = -548392.312390)

Kinetic:        -15.306564
Potential:       -2.502651
External:        +0.000000
XC:              -2.116775
Entropy (-ST):   -0.247258
Local:           -0.817084
SIC:             +0.000000
--------------------------
Free energy:    -20.990331
Extrapolated:   -20.866702

Showing only first 2 kpts
 Kpt  Band  Eigenvalues  Occupancy
  0    30      9.69736    0.16001
  0    31      9.69740    0.15994
  0    32      9.69740    0.15994
  0    33     12.72861    0.00000

  1    30      9.56943    0.47624
  1    31      9.68862    0.17335
  1    32      9.68868    0.17326
  1    33     11.98877    0.00000


Fermi level: 9.45313

No gap
No difference between direct/indirect transitions
Timing:                              incl.     excl.
-----------------------------------------------------------
Hamiltonian:                         0.094     0.002   0.0% |
 Atomic:                             0.071     0.002   0.0% |
  XC Correction:                     0.069     0.069   0.0% |
 Calculate atomic Hamiltonians:      0.010     0.010   0.0% |
 Communicate:                        0.000     0.000   0.0% |
 Initialize Hamiltonian:             0.000     0.000   0.0% |
 Poisson:                            0.003     0.003   0.0% |
 XC 3D grid:                         0.008     0.008   0.0% |
LCAO initialization:                20.691     0.088   0.0% |
 LCAO eigensolver:                   5.188     0.005   0.0% |
  Calculate projections:             0.046     0.046   0.0% |
  DenseAtomicCorrection:             0.083     0.083   0.0% |
  Distribute overlap matrix:         0.004     0.004   0.0% |
  Orbital Layouts:                   2.368     2.368   0.3% |
  Potential matrix:                  1.288     1.288   0.2% |
  Sum over cells:                    1.394     1.394   0.2% |
 LCAO to grid:                      13.355    13.355   1.7% ||
 Set positions (LCAO WFS):           2.060     0.203   0.0% |
  Basic WFS set positions:           0.005     0.005   0.0% |
  Basis functions set positions:     0.000     0.000   0.0% |
  P tci:                             1.378     1.378   0.2% |
  ST tci:                            0.455     0.455   0.1% |
  mktci:                             0.020     0.020   0.0% |
PWDescriptor:                        0.029     0.029   0.0% |
SCF-cycle:                         763.389     2.002   0.3% |
 Davidson:                         724.219    34.081   4.3% |-|
  Apply H:                          80.667    77.935   9.9% |---|
   HMM T:                            2.732     2.732   0.3% |
  Subspace diag:                    91.319     0.386   0.0% |
   calc_h_matrix:                   84.135     3.694   0.5% |
    Apply H:                        80.441    77.173   9.8% |---|
     HMM T:                          3.267     3.267   0.4% |
   diagonalize:                      1.806     1.806   0.2% |
   rotate_psi:                       4.993     4.993   0.6% |
  calc. matrices:                  136.974    17.940   2.3% ||
   Apply H:                        119.033   114.824  14.6% |-----|
    HMM T:                           4.209     4.209   0.5% |
  diagonalize:                     370.624   370.624  47.2% |------------------|
  rotate_psi:                       10.553    10.553   1.3% ||
 Density:                           34.157     0.001   0.0% |
  Atomic density matrices:           0.448     0.448   0.1% |
  Mix:                               0.314     0.314   0.0% |
  Multipole moments:                 0.029     0.029   0.0% |
  Pseudo density:                   33.365    32.474   4.1% |-|
   Symmetrize density:               0.891     0.891   0.1% |
 Hamiltonian:                        2.419     0.027   0.0% |
  Atomic:                            1.981     0.030   0.0% |
   XC Correction:                    1.951     1.951   0.2% |
  Calculate atomic Hamiltonians:     0.138     0.138   0.0% |
  Communicate:                       0.000     0.000   0.0% |
  Poisson:                           0.012     0.012   0.0% |
  XC 3D grid:                        0.261     0.261   0.0% |
 Orthonormalize:                     0.593     0.022   0.0% |
  calc_s_matrix:                     0.103     0.103   0.0% |
  inverse-cholesky:                  0.039     0.039   0.0% |
  projections:                       0.253     0.253   0.0% |
  rotate_psi_s:                      0.175     0.175   0.0% |
Set symmetry:                        0.182     0.182   0.0% |
Other:                               0.705     0.705   0.1% |
-----------------------------------------------------------
Total:                                       785.091 100.0%

Memory usage: 313.61 MiB
Date: Tue Sep 23 22:43:24 2025
