
  ___ ___ ___ _ _ _  
 |   |   |_  | | | | 
 | | | | | . | | | | 
 |__ |  _|___|_____|  25.7.0
 |___|_|             

User:   qchem@IFEOLUWA
Date:   Tue Sep 23 23:04:12 2025
Arch:   x86_64
Pid:    2526
CWD:    /home/qchem/projects/gpaw_calculations
Python: 3.12.3
gpaw:   /home/qchem/gpaw-venv/lib/python3.12/site-packages/gpaw
_gpaw:  /home/qchem/gpaw-venv/lib/python3.12/site-packages/
        _gpaw.cpython-312-x86_64-linux-gnu.so
ase:    /home/qchem/gpaw-venv/lib/python3.12/site-packages/ase (version 3.26.0)
numpy:  /home/qchem/gpaw-venv/lib/python3.12/site-packages/numpy (version 2.3.3)
scipy:  /home/qchem/gpaw-venv/lib/python3.12/site-packages/scipy (version 1.16.2)
libxc:  5.2.3
units:  Angstrom and eV
cores: 1
OpenMP: False
OMP_NUM_THREADS: 1

Input parameters:
  kpts: [12 12 12]
  mode: {ecut: 500.0,
         name: pw}

System changes: positions, numbers, cell, pbc, initial_charges, initial_magmoms 

Initialize ...

species:
  Pd:
    name: Palladium
    id: e532e18c0482708fc2e61045fa7bdb18
    Z: 46.0
    valence: 16
    core: 30
    charge: 0.0
    file: /home/qchem/gpaw-venv/lib/python3.12/site-packages/gpaw_data/setups/Pd.LDA.gz
    compensation charges: {type: gauss,
                           rc: 0.38,
                           lmax: 2}
    cutoffs: {filter: 2.38,
              core: 2.28}
    projectors:
      #              energy  rcut
      - 5s(0.00)    -3.604   1.228
      - 4p(6.00)   -51.371   1.360
      - 5p(0.00)    -0.356   1.360
      - 4d(10.00)    -4.308   1.228
      -  s          23.607   1.228
      -  d          22.904   1.228
  
    # Using partial waves for Pd as LCAO basis

Reference energy: -548392.312390  # eV

Spin-paired calculation

Convergence criteria:
 Maximum [total energy] change in last 3 cyles: 0.0005 eV / valence electron
 Maximum integral of absolute [dens]ity change: 0.0001 electrons / valence electron
 Maximum integral of absolute [eigenst]ate change: 4e-08 eV^2 / valence electron
 Maximum number of scf [iter]ations: 333
 (Square brackets indicate name in SCF output, whereas a 'c' in
 the SCF output indicates the quantity has converged.)

Symmetries present (total): 48

  ( 1  0  0)  ( 1  0  0)  ( 1  0  0)  ( 1  0  0)  ( 1  0  0)  ( 1  0  0)
  ( 0  1  0)  ( 0  1  0)  ( 0  0  1)  ( 0  0  1)  ( 0  0 -1)  ( 0  0 -1)
  ( 0  0  1)  ( 0  0 -1)  ( 0  1  0)  ( 0 -1  0)  ( 0  1  0)  ( 0 -1  0)

  ( 1  0  0)  ( 1  0  0)  ( 0  1  0)  ( 0  1  0)  ( 0  1  0)  ( 0  1  0)
  ( 0 -1  0)  ( 0 -1  0)  ( 1  0  0)  ( 1  0  0)  ( 0  0  1)  ( 0  0  1)
  ( 0  0  1)  ( 0  0 -1)  ( 0  0  1)  ( 0  0 -1)  ( 1  0  0)  (-1  0  0)

  ( 0  1  0)  ( 0  1  0)  ( 0  1  0)  ( 0  1  0)  ( 0  0  1)  ( 0  0  1)
  ( 0  0 -1)  ( 0  0 -1)  (-1  0  0)  (-1  0  0)  ( 1  0  0)  ( 1  0  0)
  ( 1  0  0)  (-1  0  0)  ( 0  0  1)  ( 0  0 -1)  ( 0  1  0)  ( 0 -1  0)

  ( 0  0  1)  ( 0  0  1)  ( 0  0  1)  ( 0  0  1)  ( 0  0  1)  ( 0  0  1)
  ( 0  1  0)  ( 0  1  0)  ( 0 -1  0)  ( 0 -1  0)  (-1  0  0)  (-1  0  0)
  ( 1  0  0)  (-1  0  0)  ( 1  0  0)  (-1  0  0)  ( 0  1  0)  ( 0 -1  0)

  ( 0  0 -1)  ( 0  0 -1)  ( 0  0 -1)  ( 0  0 -1)  ( 0  0 -1)  ( 0  0 -1)
  ( 1  0  0)  ( 1  0  0)  ( 0  1  0)  ( 0  1  0)  ( 0 -1  0)  ( 0 -1  0)
  ( 0  1  0)  ( 0 -1  0)  ( 1  0  0)  (-1  0  0)  ( 1  0  0)  (-1  0  0)

  ( 0  0 -1)  ( 0  0 -1)  ( 0 -1  0)  ( 0 -1  0)  ( 0 -1  0)  ( 0 -1  0)
  (-1  0  0)  (-1  0  0)  ( 1  0  0)  ( 1  0  0)  ( 0  0  1)  ( 0  0  1)
  ( 0  1  0)  ( 0 -1  0)  ( 0  0  1)  ( 0  0 -1)  ( 1  0  0)  (-1  0  0)

  ( 0 -1  0)  ( 0 -1  0)  ( 0 -1  0)  ( 0 -1  0)  (-1  0  0)  (-1  0  0)
  ( 0  0 -1)  ( 0  0 -1)  (-1  0  0)  (-1  0  0)  ( 0  1  0)  ( 0  1  0)
  ( 1  0  0)  (-1  0  0)  ( 0  0  1)  ( 0  0 -1)  ( 0  0  1)  ( 0  0 -1)

  (-1  0  0)  (-1  0  0)  (-1  0  0)  (-1  0  0)  (-1  0  0)  (-1  0  0)
  ( 0  0  1)  ( 0  0  1)  ( 0  0 -1)  ( 0  0 -1)  ( 0 -1  0)  ( 0 -1  0)
  ( 0  1  0)  ( 0 -1  0)  ( 0  1  0)  ( 0 -1  0)  ( 0  0  1)  ( 0  0 -1)

1728 k-points: 12 x 12 x 12 Monkhorst-Pack grid
56 k-points in the irreducible part of the Brillouin zone
       k-points in crystal coordinates                weights
   0:     0.04166667    0.04166667    0.04166667          8/1728
   1:     0.12500000    0.04166667    0.04166667         24/1728
   2:     0.12500000    0.12500000    0.04166667         24/1728
   3:     0.12500000    0.12500000    0.12500000          8/1728
   4:     0.20833333    0.04166667    0.04166667         24/1728
   5:     0.20833333    0.12500000    0.04166667         48/1728
   6:     0.20833333    0.12500000    0.12500000         24/1728
   7:     0.20833333    0.20833333    0.04166667         24/1728
   8:     0.20833333    0.20833333    0.12500000         24/1728
   9:     0.20833333    0.20833333    0.20833333          8/1728
          ...
  55:     0.45833333    0.45833333    0.45833333          8/1728

Wave functions: Plane wave expansion
  Cutoff energy: 500.000 eV
  Number of coefficients (min, max): 1553, 1583
  Pulay-stress correction: 0.000000 eV/Ang^3 (de/decut=0.000000)
  Using Numpy's FFT
  ScaLapack parameters: grid=1x1, blocksize=None
  Wavefunction extrapolation:
    Improved wavefunction reuse through dual PAW basis 

Occupation numbers: Fermi-Dirac:
  width: 0.1000  # eV
 

Eigensolver
   Davidson(niter=2) 

Densities:
  Coarse grid: 21*21*21 grid
  Fine grid: 42*42*42 grid
  Total Charge: 0.000000 

Density mixing:
  Method: separate
  Backend: pulay
  Linear mixing parameter: 0.05
  old densities: 5
  Damping of long wavelength oscillations: 50 

Hamiltonian:
  XC and Coulomb potentials evaluated on a 42*42*42 grid
  Using the LDA Exchange-Correlation functional
  External potential:
    NoExternalPotential
 

Memory estimate:
  Process memory now: 322.68 MiB
  Calculator: 79.44 MiB
    Density: 4.20 MiB
      Arrays: 1.84 MiB
      Localized functions: 1.66 MiB
      Mixer: 0.71 MiB
    Hamiltonian: 1.23 MiB
      Arrays: 1.20 MiB
      XC: 0.00 MiB
      Poisson: 0.00 MiB
      vbar: 0.03 MiB
    Wavefunctions: 74.00 MiB
      Arrays psit_nG: 58.16 MiB
      Eigensolver: 1.44 MiB
      Projections: 2.65 MiB
      Projectors: 10.04 MiB
      PW-descriptor: 1.71 MiB

Total number of cores used: 1

Number of atoms: 4
Number of atomic orbitals: 48
Number of bands in calculation: 43
Number of valence electrons: 64
Bands to converge: occupied

... initialized

Initializing position-dependent things.

Density initialized from atomic densities
Creating initial wave functions:
  43 bands from LCAO basis set

   .---------.  
  /|         |  
 * |         |  
 |Pd         |  
 | |  Pd     |  
 | .---------.  
 |/    Pd   /   
 Pd--------*    

Atomic positions and initial magnetic moments

Positions:
   0 Pd     0.000000    0.000000    0.000000    ( 0.0000,  0.0000,  0.0000)
   1 Pd     0.000000    1.976000    1.976000    ( 0.0000,  0.0000,  0.0000)
   2 Pd     1.976000    0.000000    1.976000    ( 0.0000,  0.0000,  0.0000)
   3 Pd     1.976000    1.976000    0.000000    ( 0.0000,  0.0000,  0.0000)

Unit cell:
           periodic     x           y           z      points  spacing
  1. axis:    yes    3.952000    0.000000    0.000000    21     0.1882
  2. axis:    yes    0.000000    3.952000    0.000000    21     0.1882
  3. axis:    yes    0.000000    0.000000    3.952000    21     0.1882

  Lengths:   3.952000   3.952000   3.952000
  Angles:   90.000000  90.000000  90.000000

Effective grid spacing dv^(1/3) = 0.1882

     iter     time        total  log10-change:
                         energy   eigst   dens
iter:   1 23:04:54   -25.496810
iter:   2 23:06:41   -24.383198   -1.52  -1.21
iter:   3 23:07:04   -21.840991   -0.28  -1.25
iter:   4 23:07:26   -21.048013   -2.26  -1.62
iter:   5 23:07:50   -23.096042   -1.47  -1.88
iter:   6 23:08:22   -20.624401   -1.05  -1.47
iter:   7 23:08:55   -20.627293   -2.90  -2.91
iter:   8 23:09:23   -20.630153c  -3.67  -2.88
iter:   9 23:09:47   -20.627843c  -4.64  -2.78
iter:  10 23:10:49   -20.625711c  -4.36  -2.93
iter:  11 23:13:10   -20.626394c  -3.98  -3.34
iter:  12 23:14:04   -20.625486c  -4.64  -3.19
iter:  13 23:14:31   -20.625479c  -6.00  -4.33c
iter:  14 23:15:05   -20.625485c  -7.14  -4.78c
iter:  15 23:15:26   -20.625480c  -7.42c -4.59c

Converged after 15 iterations.

Dipole moment: (0.000000, 0.000000, 0.000000) |e|*Ang

Energy contributions relative to reference atoms: (reference = -548392.312390)

Kinetic:        -30.599036
Potential:      +10.098427
External:        +0.000000
XC:              +0.822907
Entropy (-ST):   -0.262493
Local:           -0.816531
SIC:             +0.000000
--------------------------
Free energy:    -20.756727
Extrapolated:   -20.625480

Showing only first 2 kpts
 Kpt  Band  Eigenvalues  Occupancy
  0    30      8.68358    0.21678
  0    31      8.68358    0.21678
  0    32      8.68358    0.21678
  0    33     11.73159    0.00000

  1    30      8.56904    0.55298
  1    31      8.67576    0.23237
  1    32      8.67576    0.23236
  1    33     10.99769    0.00000


Fermi level: 8.47285

No gap
No difference between direct/indirect transitions
Timing:                              incl.     excl.
-----------------------------------------------------------
Hamiltonian:                         0.077     0.001   0.0% |
 Atomic:                             0.059     0.002   0.0% |
  XC Correction:                     0.057     0.057   0.0% |
 Calculate atomic Hamiltonians:      0.003     0.003   0.0% |
 Communicate:                        0.000     0.000   0.0% |
 Initialize Hamiltonian:             0.000     0.000   0.0% |
 Poisson:                            0.000     0.000   0.0% |
 XC 3D grid:                         0.014     0.014   0.0% |
LCAO initialization:                20.880     0.072   0.0% |
 LCAO eigensolver:                   5.184     0.004   0.0% |
  Calculate projections:             0.029     0.029   0.0% |
  DenseAtomicCorrection:             0.056     0.056   0.0% |
  Distribute overlap matrix:         0.003     0.003   0.0% |
  Orbital Layouts:                   2.672     2.672   0.4% |
  Potential matrix:                  1.266     1.266   0.2% |
  Sum over cells:                    1.153     1.153   0.2% |
 LCAO to grid:                      14.526    14.526   2.2% ||
 Set positions (LCAO WFS):           1.098     0.174   0.0% |
  Basic WFS set positions:           0.004     0.004   0.0% |
  Basis functions set positions:     0.000     0.000   0.0% |
  P tci:                             0.532     0.532   0.1% |
  ST tci:                            0.371     0.371   0.1% |
  mktci:                             0.017     0.017   0.0% |
PWDescriptor:                        0.034     0.034   0.0% |
SCF-cycle:                         652.615     1.254   0.2% |
 Davidson:                         618.439    29.823   4.4% |-|
  Apply H:                          79.891    77.225  11.5% |----|
   HMM T:                            2.666     2.666   0.4% |
  Subspace diag:                    91.979     0.339   0.1% |
   calc_h_matrix:                   85.842     3.523   0.5% |
    Apply H:                        82.319    79.320  11.8% |----|
     HMM T:                          2.999     2.999   0.4% |
   diagonalize:                      1.475     1.475   0.2% |
   rotate_psi:                       4.323     4.323   0.6% |
  calc. matrices:                  135.773    16.294   2.4% ||
   Apply H:                        119.479   115.258  17.1% |------|
    HMM T:                           4.221     4.221   0.6% |
  diagonalize:                     271.394   271.394  40.3% |---------------|
  rotate_psi:                        9.579     9.579   1.4% ||
 Density:                           30.300     0.000   0.0% |
  Atomic density matrices:           0.250     0.250   0.0% |
  Mix:                               0.242     0.242   0.0% |
  Multipole moments:                 0.004     0.004   0.0% |
  Pseudo density:                   29.802    29.020   4.3% |-|
   Symmetrize density:               0.782     0.782   0.1% |
 Hamiltonian:                        1.976     0.029   0.0% |
  Atomic:                            1.582     0.046   0.0% |
   XC Correction:                    1.536     1.536   0.2% |
  Calculate atomic Hamiltonians:     0.125     0.125   0.0% |
  Communicate:                       0.003     0.003   0.0% |
  Poisson:                           0.007     0.007   0.0% |
  XC 3D grid:                        0.229     0.229   0.0% |
 Orthonormalize:                     0.646     0.017   0.0% |
  calc_s_matrix:                     0.098     0.098   0.0% |
  inverse-cholesky:                  0.035     0.035   0.0% |
  projections:                       0.350     0.350   0.1% |
  rotate_psi_s:                      0.147     0.147   0.0% |
Set symmetry:                        0.149     0.149   0.0% |
Other:                               0.455     0.455   0.1% |
-----------------------------------------------------------
Total:                                       674.209 100.0%

Memory usage: 325.32 MiB
Date: Tue Sep 23 23:15:26 2025
e: 322.68 MiB
Date: Tue Sep 23 23:04:12 2025
