
  ___ ___ ___ _ _ _  
 |   |   |_  | | | | 
 | | | | | . | | | | 
 |__ |  _|___|_____|  25.7.0
 |___|_|             

User:   qchem@IFEOLUWA
Date:   Tue Sep 30 18:40:24 2025
Arch:   x86_64
Pid:    14673
CWD:    /home/qchem/projects/gpaw_calculations
Python: 3.12.3
gpaw:   /home/qchem/gpaw-venv/lib/python3.12/site-packages/gpaw
_gpaw:  /home/qchem/gpaw-venv/lib/python3.12/site-packages/
        _gpaw.cpython-312-x86_64-linux-gnu.so
ase:    /home/qchem/gpaw-venv/lib/python3.12/site-packages/ase (version 3.26.0)
numpy:  /home/qchem/gpaw-venv/lib/python3.12/site-packages/numpy (version 2.3.3)
scipy:  /home/qchem/gpaw-venv/lib/python3.12/site-packages/scipy (version 1.16.2)
libxc:  5.2.3
units:  Angstrom and eV
cores: 1
OpenMP: False
OMP_NUM_THREADS: 1

Input parameters:
  kpts: {gamma: True,
         size: (4, 4, 1)}
  mode: {ecut: 500.0,
         name: pw}
  occupations: {name: fermi-dirac,
                width: 0.1}
  spinpol: True

System changes: positions, numbers, cell, pbc, initial_charges, initial_magmoms 

Initialize ...

species:
  Pd:
    name: Palladium
    id: e532e18c0482708fc2e61045fa7bdb18
    Z: 46.0
    valence: 16
    core: 30
    charge: 0.0
    file: /home/qchem/gpaw-venv/lib/python3.12/site-packages/gpaw_data/setups/Pd.LDA.gz
    compensation charges: {type: gauss,
                           rc: 0.38,
                           lmax: 2}
    cutoffs: {filter: 2.38,
              core: 2.28}
    projectors:
      #              energy  rcut
      - 5s(0.00)    -3.604   1.228
      - 4p(6.00)   -51.371   1.360
      - 5p(0.00)    -0.356   1.360
      - 4d(10.00)    -4.308   1.228
      -  s          23.607   1.228
      -  d          22.904   1.228
  
    # Using partial waves for Pd as LCAO basis

  O:
    name: Oxygen
    id: 9b9d51c344dea68c822856295a461509
    Z: 8.0
    valence: 6
    core: 2
    charge: 0.0
    file: /home/qchem/gpaw-venv/lib/python3.12/site-packages/gpaw_data/setups/O.LDA.gz
    compensation charges: {type: gauss,
                           rc: 0.21,
                           lmax: 2}
    cutoffs: {filter: 1.17,
              core: 0.83}
    projectors:
      #              energy  rcut
      - 2s(2.00)   -23.752   0.688
      - 2p(4.00)    -9.195   0.598
      -  s           3.459   0.688
      -  p          18.016   0.598
      -  d           0.000   0.619
  
    # Using partial waves for O as LCAO basis

  H:
    name: Hydrogen
    id: 4766778ce56282eaa64abeb28b7c1de3
    Z: 1.0
    valence: 1
    core: 0
    charge: 0.0
    file: /home/qchem/gpaw-venv/lib/python3.12/site-packages/gpaw_data/setups/H.LDA.gz
    compensation charges: {type: gauss,
                           rc: 0.15,
                           lmax: 2}
    cutoffs: {filter: 0.85,
              core: 0.53}
    projectors:
      #              energy  rcut
      - 1s(1.00)    -6.353   0.476
      -  s          20.858   0.476
      -  p           0.000   0.476
  
    # Using partial waves for H as LCAO basis

Reference energy: -4937570.848539  # eV

Spin-polarized calculation.
Initial magnetic moment: 0.000000

Convergence criteria:
 Maximum [total energy] change in last 3 cyles: 0.0005 eV / valence electron
 Maximum integral of absolute [dens]ity change: 0.0001 electrons / valence electron
 Maximum integral of absolute [eigenst]ate change: 4e-08 eV^2 / valence electron
 Maximum number of scf [iter]ations: 333
 (Square brackets indicate name in SCF output, whereas a 'c' in
 the SCF output indicates the quantity has converged.)

Symmetries present (total): 1

  ( 1  0  0)
  ( 0  1  0)
  ( 0  0  1)

16 k-points: 4 x 4 x 1 Monkhorst-Pack grid + [1/8,1/8,0.000000]
10 k-points in the irreducible part of the Brillouin zone
       k-points in crystal coordinates                weights
   0:     0.00000000    0.00000000    0.00000000          1/16
   1:     0.00000000    0.25000000    0.00000000          2/16
   2:     0.00000000    0.50000000    0.00000000          1/16
   3:     0.25000000   -0.25000000    0.00000000          2/16
   4:     0.25000000    0.00000000    0.00000000          2/16
   5:     0.25000000    0.25000000    0.00000000          2/16
   6:     0.25000000    0.50000000    0.00000000          2/16
   7:     0.50000000    0.00000000    0.00000000          1/16
   8:     0.50000000    0.25000000    0.00000000          2/16
   9:     0.50000000    0.50000000    0.00000000          1/16

Wave functions: Plane wave expansion
  Cutoff energy: 500.000 eV
  Number of coefficients (min, max): 38851, 38956
  Pulay-stress correction: 0.000000 eV/Ang^3 (de/decut=0.000000)
  Using Numpy's FFT
  ScaLapack parameters: grid=1x1, blocksize=None
  Wavefunction extrapolation:
    Improved wavefunction reuse through dual PAW basis 

Occupation numbers: Fermi-Dirac:
  width: 0.1000  # eV
 

Eigensolver
   Davidson(niter=2) 

Densities:
  Coarse grid: 45*45*140 grid
  Fine grid: 90*90*280 grid
  Total Charge: 0.000000 

Density mixing:
  Method: difference
  Backend: pulay
  Linear mixing parameter: 0.05
  old densities: 5
  Damping of long wavelength oscillations: 50 

Hamiltonian:
  XC and Coulomb potentials evaluated on a 90*90*280 grid
  Using the LDA Exchange-Correlation functional
  External potential:
    NoExternalPotential
 

Memory estimate:
  Process memory now: 2568.71 MiB
  Calculator: 4823.98 MiB
    Density: 168.06 MiB
      Arrays: 75.70 MiB
      Localized functions: 62.08 MiB
      Mixer: 30.28 MiB
    Hamiltonian: 57.91 MiB
      Arrays: 56.24 MiB
      XC: 0.00 MiB
      Poisson: 0.00 MiB
      vbar: 1.68 MiB
    Wavefunctions: 4598.01 MiB
      Arrays psit_nG: 4208.50 MiB
      Eigensolver: 232.53 MiB
      Projections: 71.95 MiB
      Projectors: 68.27 MiB
      PW-descriptor: 16.76 MiB

Total number of cores used: 1

Number of atoms: 38
Number of atomic orbitals: 437
Number of bands in calculation: 354
Number of valence electrons: 583
Bands to converge: occupied

... initialized

Initializing position-dependent things.

Timing:           incl.     excl.
----------------------------------------
PWDescriptor:     0.586     0.586   0.0% |
Set symmetry:     0.006     0.006   0.0% |
Other:         1216.620  1216.620 100.0% |---------------------------------------|
----------------------------------------
Total:                   1217.212 100.0%

Memory usage: 4.37 GiB
Date: Tue Sep 30 18:56:45 2025
