
  ___ ___ ___ _ _ _  
 |   |   |_  | | | | 
 | | | | | . | | | | 
 |__ |  _|___|_____|  25.7.0
 |___|_|             

User:   qchem@IFEOLUWA
Date:   Sun Oct  5 12:05:55 2025
Arch:   x86_64
Pid:    34277
CWD:    /home/qchem/projects/gpaw_calculations
Python: 3.12.3
gpaw:   /home/qchem/gpaw-venv/lib/python3.12/site-packages/gpaw
_gpaw:  /home/qchem/gpaw-venv/lib/python3.12/site-packages/
        _gpaw.cpython-312-x86_64-linux-gnu.so
ase:    /home/qchem/gpaw-venv/lib/python3.12/site-packages/ase (version 3.26.0)
numpy:  /home/qchem/gpaw-venv/lib/python3.12/site-packages/numpy (version 2.3.3)
scipy:  /home/qchem/gpaw-venv/lib/python3.12/site-packages/scipy (version 1.16.2)
libxc:  5.2.3
units:  Angstrom and eV
cores: 4
OpenMP: False
OMP_NUM_THREADS: 1

Reading from pd_slab_opt.gpw
Read dipole, energy, forces, free_energy, magmom, magmoms
Reading input parameters:
  basis: {Pd: sz(dzp)}
  kpts: {density: 2.5,
         gamma: True}
  mode: {interpolation: 3,
         name: lcao}
  occupations: {name: fermi-dirac,
                width: 0.1}
  symmetry: {do_not_symmetrize_the_density: None,
             point_group: False,
             symmorphic: True,
             time_reversal: True,
             tolerance: 1e-07}
  xc: PBE

Initialize ...

species:
  Pd:
    name: Palladium
    id: c3f348c122b85aed3f99c4295cac773c
    Z: 46.0
    valence: 16
    core: 30
    charge: 0.0
    file: /home/qchem/gpaw-venv/lib/python3.12/site-packages/gpaw_data/setups/Pd.PBE.gz
    compensation charges: {type: gauss,
                           rc: 0.38,
                           lmax: 2}
    cutoffs: {filter: 2.38,
              core: 2.28}
    projectors:
      #              energy  rcut
      - 5s(0.00)    -3.315   1.228
      - 4p(6.00)   -51.209   1.360
      - 5p(0.00)    -0.314   1.360
      - 4d(10.00)    -4.047   1.228
      -  s          23.896   1.228
      -  d          23.165   1.228
  
    # LCAO basis set for Pd:
    #   Name: sz(dzp)
    #   File: /home/qchem/gpaw-venv/lib/python3.12/site-packages/gpaw_data/setups/Pd.dzp.basis.gz
    #   Number of radial functions: 4
    #   Number of spherical harmonics: 12
    #     l=0, rc=10.0312 Bohr: 5s-sz confined orbital
    #     l=1, rc=3.5312 Bohr: 4p-sz confined orbital
    #     l=1, rc=16.0000 Bohr: 5p-sz confined orbital
    #     l=2, rc=6.2031 Bohr: 4d-sz confined orbital
    #   Number of RI-basis functions 0

Reference energy: -4940189.665851  # eV

Spin-paired calculation

Convergence criteria:
 Maximum [total energy] change in last 3 cyles: 0.0005 eV / valence electron
 Maximum integral of absolute [dens]ity change: 0.0001 electrons / valence electron
 Maximum integral of absolute [eigenst]ate change: 4e-08 eV^2 / valence electron
 Maximum number of scf [iter]ations: 333
 (Square brackets indicate name in SCF output, whereas a 'c' in
 the SCF output indicates the quantity has converged.)

Symmetries present (total): 1

  ( 1  0  0)
  ( 0  1  0)
  ( 0  0  1)

9 k-points: 3 x 3 x 1 Monkhorst-Pack grid
5 k-points in the irreducible part of the Brillouin zone
       k-points in crystal coordinates                weights
   0:     0.00000000    0.00000000    0.00000000          1/9
   1:     0.00000000    0.33333333    0.00000000          2/9
   2:     0.33333333   -0.33333333    0.00000000          2/9
   3:     0.33333333    0.00000000    0.00000000          2/9
   4:     0.33333333    0.33333333    0.00000000          2/9

Wave functions: LCAO
  Diagonalizer: Serial LAPACK
  Atomic Correction: dense with blas
  Data-type: complex
 

Occupation numbers: Fermi-Dirac:
  width: 0.1000  # eV
 

Eigensolver
   LCAO using direct dense diagonalizer 

Densities:
  Coarse grid: 36*36*132 grid
  Fine grid: 72*72*264 grid
  Total Charge: 0.000000 

Density mixing:
  Method: separate
  Backend: pulay
  Linear mixing parameter: 0.05
  old densities: 5
  Damping of long wavelength oscillations: 50 

Hamiltonian:
  XC and Coulomb potentials evaluated on a 72*72*264 grid
  Using the PBE Exchange-Correlation functional
  Interpolation: tri-quintic (5. degree polynomial)
  Poisson solver: FastPoissonSolver using
    Stencil: 8*3+1=25 point O(h^6) finite-difference Laplacian
    FFT axes: [np.int64(0), np.int64(1)]
    FST axes: [np.int64(2)]
 

XC parameters: PBE with 2 nearest neighbor stencil

Memory estimate:
  Process memory now: 194.72 MiB
  Calculator: 290.50 MiB
    Density: 117.09 MiB
      Arrays: 16.83 MiB
      Localized functions: 93.84 MiB
      Mixer: 6.43 MiB
    Hamiltonian: 17.94 MiB
      Arrays: 11.01 MiB
      XC: 0.00 MiB
      Poisson: 0.00 MiB
      vbar: 6.93 MiB
    Wavefunctions: 155.47 MiB
      C [qnM]: 4.61 MiB
      S, T [2 x qmm]: 11.39 MiB
      P [aqMi]: 0.27 MiB
      BasisFunctions: 139.20 MiB
      Eigensolver: 0.00 MiB

Total number of cores used: 4
Parallelization over k-points: 2
Domain decomposition: 1 x 1 x 2

Number of atoms: 36
Number of atomic orbitals: 432
Number of bands in calculation: 350
Number of valence electrons: 576
Bands to converge: occupied

... initialized

Input parameters:
  basis: {H: szp(dzp),
          O: szp(dzp),
          Pd: sz(dzp)}
  kpts: {density: 2.0,
         gamma: True}
  mixer: {backend: pulay,
          beta: 0.05,
          method: difference,
          nmaxold: 10,
          weight: 100.0}
  mode: {interpolation: 3,
         name: lcao}
  spinpol: True
  symmetry: {point_group: False}

System changes: numbers, positions 

Initialize ...

species:
  Pd:
    name: Palladium
    id: c3f348c122b85aed3f99c4295cac773c
    Z: 46.0
    valence: 16
    core: 30
    charge: 0.0
    file: /home/qchem/gpaw-venv/lib/python3.12/site-packages/gpaw_data/setups/Pd.PBE.gz
    compensation charges: {type: gauss,
                           rc: 0.38,
                           lmax: 2}
    cutoffs: {filter: 2.38,
              core: 2.28}
    projectors:
      #              energy  rcut
      - 5s(0.00)    -3.315   1.228
      - 4p(6.00)   -51.209   1.360
      - 5p(0.00)    -0.314   1.360
      - 4d(10.00)    -4.047   1.228
      -  s          23.896   1.228
      -  d          23.165   1.228
  
    # LCAO basis set for Pd:
    #   Name: sz(dzp)
    #   File: /home/qchem/gpaw-venv/lib/python3.12/site-packages/gpaw_data/setups/Pd.dzp.basis.gz
    #   Number of radial functions: 4
    #   Number of spherical harmonics: 12
    #     l=0, rc=10.0312 Bohr: 5s-sz confined orbital
    #     l=1, rc=3.5312 Bohr: 4p-sz confined orbital
    #     l=1, rc=16.0000 Bohr: 5p-sz confined orbital
    #     l=2, rc=6.2031 Bohr: 4d-sz confined orbital
    #   Number of RI-basis functions 0

  O:
    name: Oxygen
    id: 32ecd46bf208036f09c70b0ec9a88b78
    Z: 8.0
    valence: 6
    core: 2
    charge: 0.0
    file: /home/qchem/gpaw-venv/lib/python3.12/site-packages/gpaw_data/setups/O.PBE.gz
    compensation charges: {type: gauss,
                           rc: 0.21,
                           lmax: 2}
    cutoffs: {filter: 1.17,
              core: 0.83}
    projectors:
      #              energy  rcut
      - 2s(2.00)   -23.961   0.688
      - 2p(4.00)    -9.029   0.598
      -  s           3.251   0.688
      -  p          18.182   0.598
      -  d           0.000   0.619
  
    # LCAO basis set for O:
    #   Name: szp(dzp)
    #   File: /home/qchem/gpaw-venv/lib/python3.12/site-packages/gpaw_data/setups/O.dzp.basis.gz
    #   Number of radial functions: 3
    #   Number of spherical harmonics: 9
    #     l=0, rc=4.3438 Bohr: 2s-sz confined orbital
    #     l=1, rc=5.3906 Bohr: 2p-sz confined orbital
    #     l=2, rc=5.3906 Bohr: d-type Gaussian polarization
    #   Number of RI-basis functions 0

  H:
    name: Hydrogen
    id: d65de229564ff8ea4db303e23b6d1ecf
    Z: 1.0
    valence: 1
    core: 0
    charge: 0.0
    file: /home/qchem/gpaw-venv/lib/python3.12/site-packages/gpaw_data/setups/H.PBE.gz
    compensation charges: {type: gauss,
                           rc: 0.15,
                           lmax: 2}
    cutoffs: {filter: 0.85,
              core: 0.53}
    projectors:
      #              energy  rcut
      - 1s(1.00)    -6.494   0.476
      -  s          20.717   0.476
      -  p           0.000   0.476
  
    # LCAO basis set for H:
    #   Name: szp(dzp)
    #   File: /home/qchem/gpaw-venv/lib/python3.12/site-packages/gpaw_data/setups/H.dzp.basis.gz
    #   Number of radial functions: 2
    #   Number of spherical harmonics: 4
    #     l=0, rc=6.4219 Bohr: 1s-sz confined orbital
    #     l=1, rc=6.4219 Bohr: p-type Gaussian polarization
    #   Number of RI-basis functions 0

Reference energy: -4942243.008314  # eV

Spin-polarized calculation.
Initial magnetic moment: 0.000000

Convergence criteria:
 Maximum [total energy] change in last 3 cyles: 0.0005 eV / valence electron
 Maximum integral of absolute [dens]ity change: 0.0001 electrons / valence electron
 Maximum integral of absolute [eigenst]ate change: 4e-08 eV^2 / valence electron
 Maximum number of scf [iter]ations: 333
 (Square brackets indicate name in SCF output, whereas a 'c' in
 the SCF output indicates the quantity has converged.)

Symmetries present (total): 1

  ( 1  0  0)
  ( 0  1  0)
  ( 0  0  1)

4 k-points: 2 x 2 x 1 Monkhorst-Pack grid + [1/4,1/4,0.000000]
4 k-points in the irreducible part of the Brillouin zone
       k-points in crystal coordinates                weights
   0:     0.00000000    0.00000000    0.00000000          1/4
   1:     0.00000000    0.50000000    0.00000000          1/4
   2:     0.50000000    0.00000000    0.00000000          1/4
   3:     0.50000000    0.50000000    0.00000000          1/4

Wave functions: LCAO
  Diagonalizer: Serial LAPACK
  Atomic Correction: dense with blas
  Data-type: complex
 

Occupation numbers: Fermi-Dirac:
  width: 0.1000  # eV
 

Eigensolver
   LCAO using direct dense diagonalizer 

Densities:
  Coarse grid: 36*36*132 grid
  Fine grid: 72*72*264 grid
  Total Charge: 0.000000 

Density mixing:
  Method: difference
  Backend: pulay
  Linear mixing parameter: 0.05
  old densities: 10
  Damping of long wavelength oscillations: 100 

Hamiltonian:
  XC and Coulomb potentials evaluated on a 72*72*264 grid
  Using the PBE Exchange-Correlation functional
  Interpolation: tri-quintic (5. degree polynomial)
  Poisson solver: FastPoissonSolver using
    Stencil: 8*3+1=25 point O(h^6) finite-difference Laplacian
    FFT axes: [np.int64(0), np.int64(1)]
    FST axes: [np.int64(2)]
 

XC parameters: PBE with 2 nearest neighbor stencil

Memory estimate:
  Process memory now: 298.88 MiB
  Calculator: 601.26 MiB
    Density: 265.14 MiB
      Arrays: 45.49 MiB
      Localized functions: 188.56 MiB
      Mixer: 31.09 MiB
    Hamiltonian: 47.72 MiB
      Arrays: 33.80 MiB
      XC: 0.00 MiB
      Poisson: 0.00 MiB
      vbar: 13.92 MiB
    Wavefunctions: 288.40 MiB
      C [qnM]: 2.40 MiB
      S, T [2 x qmm]: 6.04 MiB
      P [aqMi]: 0.28 MiB
      BasisFunctions: 279.67 MiB
      Eigensolver: 0.00 MiB

Total number of cores used: 4
Parallelization over k-points: 4

Number of atoms: 38
Number of atomic orbitals: 445
Number of bands in calculation: 354
Number of valence electrons: 583
Bands to converge: occupied

... initialized

Initializing position-dependent things.

Density initialized from atomic densities
                                           
                                           
                                           
                                           
                                           
                        O                  
                        H                  
                                           
                Pd     Pd     Pd           
                                           
            Pd   PPd    PPd    Pd          
       Pd     Pd    Pd                     
             Pd    Pd     Pd               
        Pd     Pd   PPd    Pd    Pd        
                                           
                Pd    Pd     Pd            
           Pd    Pd     Pd                 
                Pd     Pd     Pd           
            Pd    Pd     Pd                
       Pd     Pd    Pd                     
                                           
                                           
                                           
                                           

Atomic positions and initial magnetic moments

Positions:
   0 Pd     0.000000    0.000000   10.000000    ( 0.0000,  0.0000,  0.0000)
   1 Pd     2.715573    0.000000   10.000000    ( 0.0000,  0.0000,  0.0000)
   2 Pd     5.431146    0.000000   10.000000    ( 0.0000,  0.0000,  0.0000)
   3 Pd     1.357786    2.351755   10.000000    ( 0.0000,  0.0000,  0.0000)
   4 Pd     4.073359    2.351755   10.000000    ( 0.0000,  0.0000,  0.0000)
   5 Pd     6.788932    2.351755   10.000000    ( 0.0000,  0.0000,  0.0000)
   6 Pd     2.715573    4.703510   10.000000    ( 0.0000,  0.0000,  0.0000)
   7 Pd     5.431146    4.703510   10.000000    ( 0.0000,  0.0000,  0.0000)
   8 Pd     8.146719    4.703510   10.000000    ( 0.0000,  0.0000,  0.0000)
   9 Pd     1.357786    0.783918   12.217256    ( 0.0000,  0.0000,  0.0000)
  10 Pd     4.073359    0.783918   12.217256    ( 0.0000,  0.0000,  0.0000)
  11 Pd     6.788932    0.783918   12.217256    ( 0.0000,  0.0000,  0.0000)
  12 Pd     2.715573    3.135673   12.217256    ( 0.0000,  0.0000,  0.0000)
  13 Pd     5.431146    3.135673   12.217256    ( 0.0000,  0.0000,  0.0000)
  14 Pd     8.146719    3.135673   12.217256    ( 0.0000,  0.0000,  0.0000)
  15 Pd     4.073359    5.487429   12.217256    ( 0.0000,  0.0000,  0.0000)
  16 Pd     6.788932    5.487429   12.217256    ( 0.0000,  0.0000,  0.0000)
  17 Pd     9.504505    5.487429   12.217256    ( 0.0000,  0.0000,  0.0000)
  18 Pd    -0.000024    1.567822   14.485066    ( 0.0000,  0.0000,  0.0000)
  19 Pd     2.715549    1.567822   14.485066    ( 0.0000,  0.0000,  0.0000)
  20 Pd     5.431122    1.567822   14.485066    ( 0.0000,  0.0000,  0.0000)
  21 Pd     1.357762    3.919577   14.485066    ( 0.0000,  0.0000,  0.0000)
  22 Pd     4.073335    3.919577   14.485066    ( 0.0000,  0.0000,  0.0000)
  23 Pd     6.788908    3.919577   14.485066    ( 0.0000,  0.0000,  0.0000)
  24 Pd     2.715549    6.271332   14.485066    ( 0.0000,  0.0000,  0.0000)
  25 Pd     5.431122    6.271332   14.485066    ( 0.0000,  0.0000,  0.0000)
  26 Pd     8.146694    6.271332   14.485066    ( 0.0000,  0.0000,  0.0000)
  27 Pd    -0.000054   -0.000031   16.769244    ( 0.0000,  0.0000,  0.0000)
  28 Pd     2.715519   -0.000031   16.769244    ( 0.0000,  0.0000,  0.0000)
  29 Pd     5.431092   -0.000031   16.769244    ( 0.0000,  0.0000,  0.0000)
  30 Pd     1.357733    2.351724   16.769244    ( 0.0000,  0.0000,  0.0000)
  31 Pd     4.073306    2.351724   16.769244    ( 0.0000,  0.0000,  0.0000)
  32 Pd     6.788879    2.351724   16.769244    ( 0.0000,  0.0000,  0.0000)
  33 Pd     2.715519    4.703479   16.769244    ( 0.0000,  0.0000,  0.0000)
  34 Pd     5.431092    4.703479   16.769244    ( 0.0000,  0.0000,  0.0000)
  35 Pd     8.146665    4.703479   16.769244    ( 0.0000,  0.0000,  0.0000)
  36 O      6.110039    3.527633   19.769244    ( 0.0000,  0.0000,  0.0000)
  37 H      6.110039    3.527633   18.769244    ( 0.0000,  0.0000,  0.0000)

Unit cell:
           periodic     x           y           z      points  spacing
  1. axis:    yes    8.146719    0.000000    0.000000    36     0.1960
  2. axis:    yes    4.073359    7.055265    0.000000    36     0.1960
  3. axis:    no     0.000000    0.000000   26.651768   132     0.2019

  Lengths:   8.146719   8.146719  26.651768
  Angles:   90.000000  90.000000  60.000000

Effective grid spacing dv^(1/3) = 0.2077

     iter     time        total  log10-change:  magmom
                         energy   eigst   dens
iter:   1 12:13:14  -178.477697        c          +0.0000
iter:   2 12:20:38  -255.857402        c -1.12    +0.0000
iter:   3 12:29:08  -155.486397        c -1.02    +0.0000
iter:   4 12:36:55  -170.707390        c -1.19    -0.0000
iter:   5 12:45:49  -156.531026        c -1.18    -0.0000
iter:   6 12:54:21  -120.346391        c -1.22    -0.0000
iter:   7 13:01:57  -108.940441        c -1.48    -0.0000
iter:   8 13:10:25  -106.039173        c -1.75    -0.0000
iter:   9 13:19:05  -108.442287        c -1.83    +0.0000
iter:  10 13:26:10  -105.225490        c -1.72    +0.0000
iter:  11 13:33:57  -105.172520        c -1.91    +0.0000
iter:  12 13:45:01  -103.076730        c -1.95    +0.0000
iter:  13 13:55:04  -102.862756        c -2.36    +0.0000
iter:  14 14:04:44  -102.373478        c -2.37    +0.0000
iter:  15 14:14:16  -102.080776        c -2.41    +0.0000
iter:  16 14:23:57  -101.903968        c -2.44    -0.0000
iter:  17 14:32:25  -101.677424        c -2.46    -0.0000
iter:  18 14:40:52  -106.570667        c -2.54    -0.0000
iter:  19 14:48:58  -102.605607        c -2.13    -0.0000
iter:  20 14:56:50  -103.009760        c -2.21    +0.0000
iter:  21 15:04:13  -101.941326        c -2.18    -0.0000
iter:  22 15:12:56  -102.633572        c -2.35    -0.0000
iter:  23 15:20:47  -101.500600        c -2.21    +0.0000
iter:  24 15:28:24  -101.512227        c -2.84    +0.0000
iter:  25 15:36:43  -101.478515c       c -3.03    -0.0000
iter:  26 15:44:43  -101.477296c       c -3.39    -0.0000
iter:  27 15:52:54  -101.475078c       c -3.10    +0.0000
iter:  28 16:00:15  -101.478583c       c -3.16    -0.0000
iter:  29 16:09:08  -101.479329c       c -3.10    +0.0000
iter:  30 16:16:53  -101.473658c       c -3.43    +0.0000
iter:  31 16:25:04  -101.477519c       c -3.36    +0.0000
iter:  32 16:33:15  -101.476849c       c -3.10    +0.0000
iter:  33 16:41:26  -101.475142c       c -3.80    +0.0000
iter:  34 16:49:40  -101.477248c       c -3.98    +0.0000
iter:  35 16:58:09  -101.476416c       c -4.07c   +0.0000

Converged after 35 iterations.

Dipole moment: (-13.085335, -7.554786, -0.813161) |e|*Ang

Total magnetic moment: (0.000000, 0.000000, 0.000000)
Local magnetic moments:
   0 Pd ( 0.000000,  0.000000,  0.000000)
   1 Pd ( 0.000000,  0.000000,  0.000000)
   2 Pd ( 0.000000,  0.000000, -0.000000)
   3 Pd ( 0.000000,  0.000000, -0.000000)
   4 Pd ( 0.000000,  0.000000,  0.000000)
   5 Pd ( 0.000000,  0.000000,  0.000000)
   6 Pd ( 0.000000,  0.000000,  0.000000)
   7 Pd ( 0.000000,  0.000000,  0.000000)
   8 Pd ( 0.000000,  0.000000,  0.000000)
   9 Pd ( 0.000000,  0.000000, -0.000000)
  10 Pd ( 0.000000,  0.000000,  0.000000)
  11 Pd ( 0.000000,  0.000000,  0.000000)
  12 Pd ( 0.000000,  0.000000,  0.000000)
  13 Pd ( 0.000000,  0.000000,  0.000000)
  14 Pd ( 0.000000,  0.000000, -0.000000)
  15 Pd ( 0.000000,  0.000000,  0.000000)
  16 Pd ( 0.000000,  0.000000,  0.000000)
  17 Pd ( 0.000000,  0.000000,  0.000000)
  18 Pd ( 0.000000,  0.000000, -0.000000)
  19 Pd ( 0.000000,  0.000000,  0.000000)
  20 Pd ( 0.000000,  0.000000,  0.000000)
  21 Pd ( 0.000000,  0.000000, -0.000000)
  22 Pd ( 0.000000,  0.000000, -0.000000)
  23 Pd ( 0.000000,  0.000000,  0.000000)
  24 Pd ( 0.000000,  0.000000,  0.000000)
  25 Pd ( 0.000000,  0.000000,  0.000000)
  26 Pd ( 0.000000,  0.000000,  0.000000)
  27 Pd ( 0.000000,  0.000000,  0.000000)
  28 Pd ( 0.000000,  0.000000,  0.000000)
  29 Pd ( 0.000000,  0.000000,  0.000000)
  30 Pd ( 0.000000,  0.000000,  0.000000)
  31 Pd ( 0.000000,  0.000000,  0.000000)
  32 Pd ( 0.000000,  0.000000, -0.000000)
  33 Pd ( 0.000000,  0.000000,  0.000000)
  34 Pd ( 0.000000,  0.000000,  0.000000)
  35 Pd ( 0.000000,  0.000000,  0.000000)
  36 O  ( 0.000000,  0.000000, -0.000000)
  37 H  ( 0.000000,  0.000000, -0.000000)

Energy contributions relative to reference atoms: (reference = -4942243.008314)

Kinetic:       -1943.982886
Potential:     +1706.273378
External:        +0.000000
XC:            +134.484235
Entropy (-ST):   -2.434630
Local:           +2.966173
SIC:             +0.000000
--------------------------
Free energy:   -102.693731
Extrapolated:  -101.476416

Spin contamination: 0.000000 electrons
Showing only first 2 kpts
                      Up                     Down
 Kpt  Band  Eigenvalues  Occupancy  Eigenvalues  Occupancy
  0   289     -6.62659    0.94775     -6.62659    0.94775
  0   290     -6.62509    0.94700     -6.62509    0.94700
  0   291     -6.54928    0.89330     -6.54928    0.89330
  0   292     -6.54266    0.88684     -6.54266    0.88684

  1   289     -6.38697    0.62291     -6.38697    0.62291
  1   290     -6.32533    0.47139     -6.32533    0.47139
  1   291     -6.23094    0.25761     -6.23094    0.25761
  1   292     -6.22770    0.25146     -6.22770    0.25146


Fermi level: -6.33678

No gap
No difference between direct/indirect transitions

Forces in eV/Ang:
  0 Pd    0.00480    0.00277   -0.48977
  1 Pd   -0.00136    0.00016   -0.49478
  2 Pd   -0.00183    0.00417   -0.48925
  3 Pd   -0.00054   -0.00125   -0.49478
  4 Pd    0.00077    0.00044   -0.48874
  5 Pd    0.00029   -0.00170   -0.48852
  6 Pd    0.00270   -0.00367   -0.48925
  7 Pd   -0.00133    0.00110   -0.48852
  8 Pd    0.00047    0.00027   -0.48867
  9 Pd   -0.00384   -0.00222    0.52185
 10 Pd    0.00296   -0.00279    0.52811
 11 Pd    0.00137   -0.00028    0.53535
 12 Pd   -0.00093    0.00395    0.52811
 13 Pd    0.00006    0.00004    0.53299
 14 Pd    0.00137    0.00116    0.53214
 15 Pd    0.00044    0.00132    0.53535
 16 Pd    0.00169    0.00060    0.53214
 17 Pd   -0.00188   -0.00109    0.53251
 18 Pd    0.00575   -0.00063   -0.06732
 19 Pd    0.00095    0.00055   -0.06574
 20 Pd    0.00114   -0.00391   -0.06510
 21 Pd   -0.00195   -0.00434   -0.08067
 22 Pd   -0.00282    0.00294   -0.06510
 23 Pd    0.00482    0.00278   -0.07782
 24 Pd    0.00304    0.00175   -0.08646
 25 Pd    0.00233    0.00529   -0.06732
 26 Pd   -0.00474    0.00049   -0.08067
 27 Pd    0.00619    0.00357    0.06092
 28 Pd    0.00067   -0.01215    0.05399
 29 Pd   -0.00588    0.01390    0.05934
 30 Pd   -0.01018    0.00666    0.05398
 31 Pd    0.02174    0.01255    0.16232
 32 Pd   -0.02084    0.01248    0.33502
 33 Pd    0.00910   -0.01204    0.05934
 34 Pd    0.00039   -0.02429    0.33502
 35 Pd   -0.02443   -0.01411    0.17090
 36 O    -0.00161   -0.00093    1.08934
 37 H     0.00823    0.00475   -2.01129

System changes: positions 

Initializing position-dependent things.

Density initialized from wave functions
                                           
                                           
                                           
                                           
                                           
                        O                  
                                           
                        H                  
                Pd     Pd     Pd           
                                           
            Pd   PPd    PPd    Pd          
       Pd     Pd    Pd                     
             Pd    Pd     Pd               
        Pd     Pd   PPd    Pd    Pd        
                                           
                Pd    Pd     Pd            
           Pd    Pd     Pd                 
                Pd     Pd     Pd           
            Pd    Pd     Pd                
       Pd     Pd    Pd                     
                                           
                                           
                                           
                                           

Atomic positions and initial magnetic moments

Positions:
   0 Pd     0.000000    0.000000   10.000000    ( 0.0000,  0.0000,  0.0000)
   1 Pd     2.715573    0.000000   10.000000    ( 0.0000,  0.0000,  0.0000)
   2 Pd     5.431146    0.000000   10.000000    ( 0.0000,  0.0000,  0.0000)
   3 Pd     1.357786    2.351755   10.000000    ( 0.0000,  0.0000,  0.0000)
   4 Pd     4.073359    2.351755   10.000000    ( 0.0000,  0.0000,  0.0000)
   5 Pd     6.788932    2.351755   10.000000    ( 0.0000,  0.0000,  0.0000)
   6 Pd     2.715573    4.703510   10.000000    ( 0.0000,  0.0000,  0.0000)
   7 Pd     5.431146    4.703510   10.000000    ( 0.0000,  0.0000,  0.0000)
   8 Pd     8.146719    4.703510   10.000000    ( 0.0000,  0.0000,  0.0000)
   9 Pd     1.357786    0.783918   12.217256    ( 0.0000,  0.0000,  0.0000)
  10 Pd     4.073359    0.783918   12.217256    ( 0.0000,  0.0000,  0.0000)
  11 Pd     6.788932    0.783918   12.217256    ( 0.0000,  0.0000,  0.0000)
  12 Pd     2.715573    3.135673   12.217256    ( 0.0000,  0.0000,  0.0000)
  13 Pd     5.431146    3.135673   12.217256    ( 0.0000,  0.0000,  0.0000)
  14 Pd     8.146719    3.135673   12.217256    ( 0.0000,  0.0000,  0.0000)
  15 Pd     4.073359    5.487429   12.217256    ( 0.0000,  0.0000,  0.0000)
  16 Pd     6.788932    5.487429   12.217256    ( 0.0000,  0.0000,  0.0000)
  17 Pd     9.504505    5.487429   12.217256    ( 0.0000,  0.0000,  0.0000)
  18 Pd     0.000058    1.567813   14.484105    ( 0.0000,  0.0000,  0.0000)
  19 Pd     2.715562    1.567830   14.484127    ( 0.0000,  0.0000,  0.0000)
  20 Pd     5.431138    1.567766   14.484136    ( 0.0000,  0.0000,  0.0000)
  21 Pd     1.357734    3.919515   14.483914    ( 0.0000,  0.0000,  0.0000)
  22 Pd     4.073295    3.919619   14.484136    ( 0.0000,  0.0000,  0.0000)
  23 Pd     6.788977    3.919617   14.483955    ( 0.0000,  0.0000,  0.0000)
  24 Pd     2.715592    6.271357   14.483831    ( 0.0000,  0.0000,  0.0000)
  25 Pd     5.431155    6.271408   14.484105    ( 0.0000,  0.0000,  0.0000)
  26 Pd     8.146627    6.271339   14.483914    ( 0.0000,  0.0000,  0.0000)
  27 Pd     0.000035    0.000020   16.770114    ( 0.0000,  0.0000,  0.0000)
  28 Pd     2.715529   -0.000205   16.770015    ( 0.0000,  0.0000,  0.0000)
  29 Pd     5.431008    0.000167   16.770092    ( 0.0000,  0.0000,  0.0000)
  30 Pd     1.357588    2.351819   16.770015    ( 0.0000,  0.0000,  0.0000)
  31 Pd     4.073616    2.351903   16.771563    ( 0.0000,  0.0000,  0.0000)
  32 Pd     6.788581    2.351902   16.774030    ( 0.0000,  0.0000,  0.0000)
  33 Pd     2.715649    4.703307   16.770092    ( 0.0000,  0.0000,  0.0000)
  34 Pd     5.431098    4.703132   16.774030    ( 0.0000,  0.0000,  0.0000)
  35 Pd     8.146316    4.703277   16.771685    ( 0.0000,  0.0000,  0.0000)
  36 O      6.110016    3.527619   19.784806    ( 0.0000,  0.0000,  0.0000)
  37 H      6.110157    3.527701   18.740511    ( 0.0000,  0.0000,  0.0000)

Unit cell:
           periodic     x           y           z      points  spacing
  1. axis:    yes    8.146719    0.000000    0.000000    36     0.1960
  2. axis:    yes    4.073359    7.055265    0.000000    36     0.1960
  3. axis:    no     0.000000    0.000000   26.651768   132     0.2019

  Lengths:   8.146719   8.146719  26.651768
  Angles:   90.000000  90.000000  60.000000

Effective grid spacing dv^(1/3) = 0.2077

     iter     time        total  log10-change:  magmom
                         energy   eigst   dens
iter:   1 17:23:07  -101.614089        c          +0.0000
iter:   2 17:31:38  -101.950883        c -2.69    +0.0000
iter:   3 17:39:33  -101.847179        c -2.25    +0.0000
iter:   4 17:46:43  -101.525864        c -2.31    -0.0000
iter:   5 17:54:42  -101.517999        c -3.45    -0.0000
iter:   6 18:01:54  -101.519602c       c -3.61    -0.0000
iter:   7 18:09:56  -101.522471c       c -3.62    -0.0000
iter:   8 18:17:26  -101.519232c       c -3.57    +0.0000
iter:   9 18:25:15  -101.517066c       c -3.78    +0.0000
iter:  10 18:32:09  -101.517510c       c -4.21c   +0.0000

Converged after 10 iterations.

Dipole moment: (-13.086312, -7.555348, -0.800298) |e|*Ang

Total magnetic moment: (0.000000, 0.000000, 0.000000)
Local magnetic moments:
   0 Pd ( 0.000000,  0.000000,  0.000000)
   1 Pd ( 0.000000,  0.000000,  0.000000)
   2 Pd ( 0.000000,  0.000000,  0.000000)
   3 Pd ( 0.000000,  0.000000,  0.000000)
   4 Pd ( 0.000000,  0.000000,  0.000000)
   5 Pd ( 0.000000,  0.000000, -0.000000)
   6 Pd ( 0.000000,  0.000000, -0.000000)
   7 Pd ( 0.000000,  0.000000, -0.000000)
   8 Pd ( 0.000000,  0.000000, -0.000000)
   9 Pd ( 0.000000,  0.000000,  0.000000)
  10 Pd ( 0.000000,  0.000000,  0.000000)
  11 Pd ( 0.000000,  0.000000,  0.000000)
  12 Pd ( 0.000000,  0.000000,  0.000000)
  13 Pd ( 0.000000,  0.000000, -0.000000)
  14 Pd ( 0.000000,  0.000000,  0.000000)
  15 Pd ( 0.000000,  0.000000, -0.000000)
  16 Pd ( 0.000000,  0.000000,  0.000000)
  17 Pd ( 0.000000,  0.000000, -0.000000)
  18 Pd ( 0.000000,  0.000000, -0.000000)
  19 Pd ( 0.000000,  0.000000,  0.000000)
  20 Pd ( 0.000000,  0.000000,  0.000000)
  21 Pd ( 0.000000,  0.000000, -0.000000)
  22 Pd ( 0.000000,  0.000000, -0.000000)
  23 Pd ( 0.000000,  0.000000,  0.000000)
  24 Pd ( 0.000000,  0.000000, -0.000000)
  25 Pd ( 0.000000,  0.000000,  0.000000)
  26 Pd ( 0.000000,  0.000000,  0.000000)
  27 Pd ( 0.000000,  0.000000, -0.000000)
  28 Pd ( 0.000000,  0.000000,  0.000000)
  29 Pd ( 0.000000,  0.000000, -0.000000)
  30 Pd ( 0.000000,  0.000000,  0.000000)
  31 Pd ( 0.000000,  0.000000, -0.000000)
  32 Pd ( 0.000000,  0.000000,  0.000000)
  33 Pd ( 0.000000,  0.000000, -0.000000)
  34 Pd ( 0.000000,  0.000000,  0.000000)
  35 Pd ( 0.000000,  0.000000,  0.000000)
  36 O  ( 0.000000,  0.000000,  0.000000)
  37 H  ( 0.000000,  0.000000,  0.000000)

Energy contributions relative to reference atoms: (reference = -4942243.008314)

Kinetic:       -1948.180493
Potential:     +1709.919587
External:        +0.000000
XC:            +135.063955
Entropy (-ST):   -2.432957
Local:           +2.895918
SIC:             +0.000000
--------------------------
Free energy:   -102.733989
Extrapolated:  -101.517510

Spin contamination: 0.000000 electrons
Showing only first 2 kpts
                      Up                     Down
 Kpt  Band  Eigenvalues  Occupancy  Eigenvalues  Occupancy
  0   289     -6.60979    0.94737     -6.60979    0.94737
  0   290     -6.60834    0.94664     -6.60834    0.94664
  0   291     -6.53461    0.89460     -6.53461    0.89460
  0   292     -6.52807    0.88826     -6.52807    0.88826

  1   289     -6.37236    0.62622     -6.37236    0.62622
  1   290     -6.30869    0.46988     -6.30869    0.46988
  1   291     -6.21405    0.25597     -6.21405    0.25597
  1   292     -6.21044    0.24916     -6.21044    0.24916


Fermi level: -6.32075

No gap
No difference between direct/indirect transitions

Forces in eV/Ang:
  0 Pd    0.00251    0.00145   -0.49302
  1 Pd    0.00001   -0.00152   -0.49745
  2 Pd   -0.00124    0.00245   -0.49347
  3 Pd   -0.00131    0.00077   -0.49745
  4 Pd    0.00124    0.00072   -0.49380
  5 Pd    0.00050   -0.00154   -0.49423
  6 Pd    0.00150   -0.00229   -0.49347
  7 Pd   -0.00108    0.00121   -0.49423
  8 Pd    0.00098    0.00056   -0.49423
  9 Pd   -0.00311   -0.00180    0.52307
 10 Pd    0.00205   -0.00337    0.53186
 11 Pd    0.00184   -0.00078    0.54112
 12 Pd   -0.00190    0.00346    0.53186
 13 Pd    0.00049    0.00028    0.54082
 14 Pd    0.00163    0.00037    0.53873
 15 Pd    0.00024    0.00199    0.54112
 16 Pd    0.00113    0.00122    0.53873
 17 Pd   -0.00122   -0.00070    0.53651
 18 Pd   -0.00458    0.00304   -0.03943
 19 Pd    0.00654    0.00378   -0.03459
 20 Pd    0.00528    0.00160   -0.03554
 21 Pd   -0.00558    0.00262   -0.05069
 22 Pd    0.00403    0.00377   -0.03554
 23 Pd    0.00089    0.00051   -0.03851
 24 Pd    0.00124    0.00071   -0.05916
 25 Pd    0.00034   -0.00549   -0.03943
 26 Pd   -0.00052   -0.00615   -0.05069
 27 Pd    0.00365    0.00211    0.03371
 28 Pd    0.00181   -0.00043    0.02858
 29 Pd   -0.00523    0.00038    0.03164
 30 Pd    0.00053    0.00178    0.02858
 31 Pd    0.01651    0.00953    0.13772
 32 Pd   -0.02522    0.02463    0.32220
 33 Pd   -0.00228   -0.00472    0.03164
 34 Pd    0.00872   -0.03416    0.32220
 35 Pd   -0.01844   -0.01065    0.14214
 36 O    -0.00015   -0.00008   -0.69890
 37 H     0.00732    0.00422   -0.35556

System changes: positions 

Initializing position-dependent things.

Density initialized from wave functions
                                           
                                           
                                           
                                           
                                           
                        O                  
                                           
                        H                  
                Pd     Pd     Pd           
                                           
            Pd   PPd    PPd    Pd          
       Pd     Pd    Pd                     
             Pd    Pd     Pd               
        Pd     Pd   PPd    Pd    Pd        
                                           
                Pd    Pd     Pd            
           Pd    Pd     Pd                 
                Pd     Pd     Pd           
            Pd    Pd     Pd                
       Pd     Pd    Pd                     
                                           
                                           
                                           
                                           

Atomic positions and initial magnetic moments

Positions:
   0 Pd     0.000000    0.000000   10.000000    ( 0.0000,  0.0000,  0.0000)
   1 Pd     2.715573    0.000000   10.000000    ( 0.0000,  0.0000,  0.0000)
   2 Pd     5.431146    0.000000   10.000000    ( 0.0000,  0.0000,  0.0000)
   3 Pd     1.357786    2.351755   10.000000    ( 0.0000,  0.0000,  0.0000)
   4 Pd     4.073359    2.351755   10.000000    ( 0.0000,  0.0000,  0.0000)
   5 Pd     6.788932    2.351755   10.000000    ( 0.0000,  0.0000,  0.0000)
   6 Pd     2.715573    4.703510   10.000000    ( 0.0000,  0.0000,  0.0000)
   7 Pd     5.431146    4.703510   10.000000    ( 0.0000,  0.0000,  0.0000)
   8 Pd     8.146719    4.703510   10.000000    ( 0.0000,  0.0000,  0.0000)
   9 Pd     1.357786    0.783918   12.217256    ( 0.0000,  0.0000,  0.0000)
  10 Pd     4.073359    0.783918   12.217256    ( 0.0000,  0.0000,  0.0000)
  11 Pd     6.788932    0.783918   12.217256    ( 0.0000,  0.0000,  0.0000)
  12 Pd     2.715573    3.135673   12.217256    ( 0.0000,  0.0000,  0.0000)
  13 Pd     5.431146    3.135673   12.217256    ( 0.0000,  0.0000,  0.0000)
  14 Pd     8.146719    3.135673   12.217256    ( 0.0000,  0.0000,  0.0000)
  15 Pd     4.073359    5.487429   12.217256    ( 0.0000,  0.0000,  0.0000)
  16 Pd     6.788932    5.487429   12.217256    ( 0.0000,  0.0000,  0.0000)
  17 Pd     9.504505    5.487429   12.217256    ( 0.0000,  0.0000,  0.0000)
  18 Pd     0.000003    1.567857   14.483348    ( 0.0000,  0.0000,  0.0000)
  19 Pd     2.715663    1.567888   14.483447    ( 0.0000,  0.0000,  0.0000)
  20 Pd     5.431220    1.567781   14.483444    ( 0.0000,  0.0000,  0.0000)
  21 Pd     1.357646    3.919544   14.482956    ( 0.0000,  0.0000,  0.0000)
  22 Pd     4.073348    3.919683   14.483444    ( 0.0000,  0.0000,  0.0000)
  23 Pd     6.789002    3.919632   14.483186    ( 0.0000,  0.0000,  0.0000)
  24 Pd     2.715618    6.271372   14.482732    ( 0.0000,  0.0000,  0.0000)
  25 Pd     5.431166    6.271339   14.483348    ( 0.0000,  0.0000,  0.0000)
  26 Pd     8.146607    6.271249   14.482956    ( 0.0000,  0.0000,  0.0000)
  27 Pd     0.000105    0.000060   16.770769    ( 0.0000,  0.0000,  0.0000)
  28 Pd     2.715558   -0.000241   16.770576    ( 0.0000,  0.0000,  0.0000)
  29 Pd     5.430916    0.000207   16.770712    ( 0.0000,  0.0000,  0.0000)
  30 Pd     1.357570    2.351862   16.770576    ( 0.0000,  0.0000,  0.0000)
  31 Pd     4.073917    2.352077   16.774025    ( 0.0000,  0.0000,  0.0000)
  32 Pd     6.788152    2.352302   16.779680    ( 0.0000,  0.0000,  0.0000)
  33 Pd     2.715638    4.703207   16.770712    ( 0.0000,  0.0000,  0.0000)
  34 Pd     5.431229    4.702560   16.779680    ( 0.0000,  0.0000,  0.0000)
  35 Pd     8.145980    4.703083   16.774235    ( 0.0000,  0.0000,  0.0000)
  36 O      6.110010    3.527616   19.777022    ( 0.0000,  0.0000,  0.0000)
  37 H      6.110286    3.527776   18.730235    ( 0.0000,  0.0000,  0.0000)

Unit cell:
           periodic     x           y           z      points  spacing
  1. axis:    yes    8.146719    0.000000    0.000000    36     0.1960
  2. axis:    yes    4.073359    7.055265    0.000000    36     0.1960
  3. axis:    no     0.000000    0.000000   26.651768   132     0.2019

  Lengths:   8.146719   8.146719  26.651768
  Angles:   90.000000  90.000000  60.000000

Effective grid spacing dv^(1/3) = 0.2077

     iter     time        total  log10-change:  magmom
                         energy   eigst   dens
iter:   1 18:55:21  -102.626916        c          +0.0000
iter:   2 19:03:26  -115.932208        c -2.09    +0.0000
iter:   3 19:12:47  -122.115861        c -1.69    +0.0000
iter:   4 19:21:02  -103.731675        c -1.62    -0.0000
iter:   5 19:29:28  -102.504237        c -2.06    +0.0000
iter:   6 19:37:30  -101.880914        c -2.38    +0.0000
iter:   7 19:45:30  -101.697105        c -2.73    +0.0000
iter:   8 19:52:33  -101.581576        c -2.75    +0.0000
iter:   9 20:00:53  -101.579251c       c -3.05    +0.0000
iter:  10 20:08:58  -101.546689c       c -3.04    +0.0000
iter:  11 20:16:28  -101.544032c       c -3.37    +0.0000
iter:  12 20:24:08  -101.530751c       c -3.41    +0.0000
iter:  13 20:31:37  -101.530082c       c -3.93    +0.0000
iter:  14 20:39:32  -101.532933c       c -3.91    +0.0000
iter:  15 20:47:27  -101.530833c       c -4.27c   +0.0000

Converged after 15 iterations.

Dipole moment: (-13.093354, -7.559412, -0.803564) |e|*Ang

Total magnetic moment: (0.000000, 0.000000, 0.000000)
Local magnetic moments:
   0 Pd ( 0.000000,  0.000000, -0.000000)
   1 Pd ( 0.000000,  0.000000, -0.000000)
   2 Pd ( 0.000000,  0.000000,  0.000000)
   3 Pd ( 0.000000,  0.000000,  0.000000)
   4 Pd ( 0.000000,  0.000000,  0.000000)
   5 Pd ( 0.000000,  0.000000, -0.000000)
   6 Pd ( 0.000000,  0.000000,  0.000000)
   7 Pd ( 0.000000,  0.000000,  0.000000)
   8 Pd ( 0.000000,  0.000000,  0.000000)
   9 Pd ( 0.000000,  0.000000,  0.000000)
  10 Pd ( 0.000000,  0.000000,  0.000000)
  11 Pd ( 0.000000,  0.000000,  0.000000)
  12 Pd ( 0.000000,  0.000000,  0.000000)
  13 Pd ( 0.000000,  0.000000,  0.000000)
  14 Pd ( 0.000000,  0.000000,  0.000000)
  15 Pd ( 0.000000,  0.000000,  0.000000)
  16 Pd ( 0.000000,  0.000000,  0.000000)
  17 Pd ( 0.000000,  0.000000,  0.000000)
  18 Pd ( 0.000000,  0.000000,  0.000000)
  19 Pd ( 0.000000,  0.000000,  0.000000)
  20 Pd ( 0.000000,  0.000000,  0.000000)
  21 Pd ( 0.000000,  0.000000,  0.000000)
  22 Pd ( 0.000000,  0.000000,  0.000000)
  23 Pd ( 0.000000,  0.000000,  0.000000)
  24 Pd ( 0.000000,  0.000000,  0.000000)
  25 Pd ( 0.000000,  0.000000,  0.000000)
  26 Pd ( 0.000000,  0.000000, -0.000000)
  27 Pd ( 0.000000,  0.000000,  0.000000)
  28 Pd ( 0.000000,  0.000000,  0.000000)
  29 Pd ( 0.000000,  0.000000,  0.000000)
  30 Pd ( 0.000000,  0.000000,  0.000000)
  31 Pd ( 0.000000,  0.000000, -0.000000)
  32 Pd ( 0.000000,  0.000000,  0.000000)
  33 Pd ( 0.000000,  0.000000,  0.000000)
  34 Pd ( 0.000000,  0.000000,  0.000000)
  35 Pd ( 0.000000,  0.000000,  0.000000)
  36 O  ( 0.000000,  0.000000, -0.000000)
  37 H  ( 0.000000,  0.000000, -0.000000)

Energy contributions relative to reference atoms: (reference = -4942243.008314)

Kinetic:       -1948.970500
Potential:     +1710.532909
External:        +0.000000
XC:            +135.167070
Entropy (-ST):   -2.432812
Local:           +2.956095
SIC:             +0.000000
--------------------------
Free energy:   -102.747239
Extrapolated:  -101.530833

Spin contamination: 0.000000 electrons
Showing only first 2 kpts
                      Up                     Down
 Kpt  Band  Eigenvalues  Occupancy  Eigenvalues  Occupancy
  0   289     -6.61163    0.94772     -6.61163    0.94772
  0   290     -6.61025    0.94703     -6.61025    0.94703
  0   291     -6.52951    0.88857     -6.52951    0.88857
  0   292     -6.52398    0.88298     -6.52398    0.88298

  1   289     -6.37195    0.62260     -6.37195    0.62260
  1   290     -6.31088    0.47250     -6.31088    0.47250
  1   291     -6.21447    0.25462     -6.21447    0.25462
  1   292     -6.21198    0.24992     -6.21198    0.24992


Fermi level: -6.32189

No gap
No difference between direct/indirect transitions

Forces in eV/Ang:
  0 Pd    0.00274    0.00158   -0.48895
  1 Pd    0.00039   -0.00070   -0.49321
  2 Pd   -0.00160    0.00253   -0.48944
  3 Pd   -0.00041    0.00069   -0.49321
  4 Pd    0.00119    0.00069   -0.48964
  5 Pd   -0.00024   -0.00051   -0.48960
  6 Pd    0.00139   -0.00265   -0.48944
  7 Pd   -0.00056    0.00005   -0.48960
  8 Pd    0.00072    0.00041   -0.48995
  9 Pd   -0.00301   -0.00174    0.52101
 10 Pd    0.00196   -0.00292    0.52832
 11 Pd    0.00207    0.00009    0.53746
 12 Pd   -0.00155    0.00316    0.52832
 13 Pd    0.00051    0.00029    0.53695
 14 Pd    0.00141   -0.00000    0.53435
 15 Pd    0.00111    0.00175    0.53746
 16 Pd    0.00070    0.00123    0.53435
 17 Pd   -0.00143   -0.00082    0.53221
 18 Pd   -0.01044    0.00654   -0.01351
 19 Pd    0.00761    0.00439   -0.01901
 20 Pd    0.00868    0.00534   -0.00877
 21 Pd   -0.00680    0.00303   -0.03187
 22 Pd    0.00896    0.00484   -0.00877
 23 Pd   -0.00267   -0.00154   -0.00303
 24 Pd    0.00128    0.00074   -0.04348
 25 Pd    0.00044   -0.01232   -0.01351
 26 Pd   -0.00078   -0.00741   -0.03187
 27 Pd    0.00256    0.00148    0.03656
 28 Pd    0.00208    0.00078    0.03179
 29 Pd   -0.00501   -0.00182    0.03417
 30 Pd    0.00172    0.00140    0.03179
 31 Pd    0.00227    0.00131    0.12040
 32 Pd   -0.01296    0.00547    0.27497
 33 Pd   -0.00408   -0.00343    0.03417
 34 Pd   -0.00174   -0.01396    0.27497
 35 Pd   -0.00547   -0.00316    0.12344
 36 O     0.00038    0.00022   -0.63128
 37 H     0.00746    0.00431   -0.32271

System changes: positions 

Initializing position-dependent things.

Density initialized from wave functions
                                           
                                           
                                           
                                           
                                           
                        O                  
                                           
                        H                  
                Pd     Pd     Pd           
                                           
            Pd   PPd    PPd    Pd          
       Pd     Pd    Pd                     
             Pd    Pd     Pd               
        Pd     Pd   PPd    Pd    Pd        
                                           
                Pd    Pd     Pd            
           Pd    Pd     Pd                 
                Pd     Pd     Pd           
            Pd    Pd     Pd                
       Pd     Pd    Pd                     
                                           
                                           
                                           
                                           

Atomic positions and initial magnetic moments

Positions:
   0 Pd     0.000000    0.000000   10.000000    ( 0.0000,  0.0000,  0.0000)
   1 Pd     2.715573    0.000000   10.000000    ( 0.0000,  0.0000,  0.0000)
   2 Pd     5.431146    0.000000   10.000000    ( 0.0000,  0.0000,  0.0000)
   3 Pd     1.357786    2.351755   10.000000    ( 0.0000,  0.0000,  0.0000)
   4 Pd     4.073359    2.351755   10.000000    ( 0.0000,  0.0000,  0.0000)
   5 Pd     6.788932    2.351755   10.000000    ( 0.0000,  0.0000,  0.0000)
   6 Pd     2.715573    4.703510   10.000000    ( 0.0000,  0.0000,  0.0000)
   7 Pd     5.431146    4.703510   10.000000    ( 0.0000,  0.0000,  0.0000)
   8 Pd     8.146719    4.703510   10.000000    ( 0.0000,  0.0000,  0.0000)
   9 Pd     1.357786    0.783918   12.217256    ( 0.0000,  0.0000,  0.0000)
  10 Pd     4.073359    0.783918   12.217256    ( 0.0000,  0.0000,  0.0000)
  11 Pd     6.788932    0.783918   12.217256    ( 0.0000,  0.0000,  0.0000)
  12 Pd     2.715573    3.135673   12.217256    ( 0.0000,  0.0000,  0.0000)
  13 Pd     5.431146    3.135673   12.217256    ( 0.0000,  0.0000,  0.0000)
  14 Pd     8.146719    3.135673   12.217256    ( 0.0000,  0.0000,  0.0000)
  15 Pd     4.073359    5.487429   12.217256    ( 0.0000,  0.0000,  0.0000)
  16 Pd     6.788932    5.487429   12.217256    ( 0.0000,  0.0000,  0.0000)
  17 Pd     9.504505    5.487429   12.217256    ( 0.0000,  0.0000,  0.0000)
  18 Pd    -0.001169    1.568650   14.480077    ( 0.0000,  0.0000,  0.0000)
  19 Pd     2.716647    1.568456   14.479605    ( 0.0000,  0.0000,  0.0000)
  20 Pd     5.432321    1.568355   14.480814    ( 0.0000,  0.0000,  0.0000)
  21 Pd     1.356748    3.919847   14.477148    ( 0.0000,  0.0000,  0.0000)
  22 Pd     4.074396    3.920350   14.480814    ( 0.0000,  0.0000,  0.0000)
  23 Pd     6.788786    3.919507   14.480964    ( 0.0000,  0.0000,  0.0000)
  24 Pd     2.715839    6.271500   14.475355    ( 0.0000,  0.0000,  0.0000)
  25 Pd     5.431266    6.269927   14.480077    ( 0.0000,  0.0000,  0.0000)
  26 Pd     8.146421    6.270319   14.477148    ( 0.0000,  0.0000,  0.0000)
  27 Pd     0.000561    0.000323   16.776585    ( 0.0000,  0.0000,  0.0000)
  28 Pd     2.715834   -0.000382   16.775645    ( 0.0000,  0.0000,  0.0000)
  29 Pd     5.430159    0.000258   16.776193    ( 0.0000,  0.0000,  0.0000)
  30 Pd     1.357587    2.352172   16.775645    ( 0.0000,  0.0000,  0.0000)
  31 Pd     4.074766    2.352566   16.792731    ( 0.0000,  0.0000,  0.0000)
  32 Pd     6.785968    2.353438   16.821807    ( 0.0000,  0.0000,  0.0000)
  33 Pd     2.715304    4.702526   16.776193    ( 0.0000,  0.0000,  0.0000)
  34 Pd     5.431121    4.700101   16.821807    ( 0.0000,  0.0000,  0.0000)
  35 Pd     8.144683    4.702334   16.793507    ( 0.0000,  0.0000,  0.0000)
  36 O      6.110023    3.527623   19.715751    ( 0.0000,  0.0000,  0.0000)
  37 H      6.111399    3.528418   18.650533    ( 0.0000,  0.0000,  0.0000)

Unit cell:
           periodic     x           y           z      points  spacing
  1. axis:    yes    8.146719    0.000000    0.000000    36     0.1960
  2. axis:    yes    4.073359    7.055265    0.000000    36     0.1960
  3. axis:    no     0.000000    0.000000   26.651768   132     0.2019

  Lengths:   8.146719   8.146719  26.651768
  Angles:   90.000000  90.000000  60.000000

Effective grid spacing dv^(1/3) = 0.2077

     iter     time        total  log10-change:  magmom
                         energy   eigst   dens
iter:   1 21:10:49  -101.852186        c          +0.0000
iter:   2 21:19:56  -102.271572        c -2.80    +0.0000
iter:   3 21:31:35  -102.110651        c -2.17    +0.0000
iter:   4 21:39:50  -101.726193        c -2.29    +0.0000
iter:   5 21:48:13  -101.679992        c -2.93    +0.0000
iter:   6 21:56:15  -101.680726c       c -3.04    +0.0000
iter:   7 22:04:24  -101.670807c       c -3.04    +0.0000
iter:   8 22:16:28  -101.632724c       c -3.08    +0.0000
iter:   9 22:24:57  -101.632815c       c -3.03    +0.0000
iter:  10 22:32:12  -101.634351c       c -3.02    +0.0000
iter:  11 22:40:04  -101.629152c       c -3.45    +0.0000
iter:  12 22:48:07  -101.623847c       c -3.64    -0.0000
iter:  13 22:56:15  -101.622123c       c -4.41c   +0.0000

Converged after 13 iterations.

Dipole moment: (-13.158670, -7.597104, -0.800419) |e|*Ang

Total magnetic moment: (0.000000, 0.000000, 0.000000)
Local magnetic moments:
   0 Pd ( 0.000000,  0.000000,  0.000000)
   1 Pd ( 0.000000,  0.000000,  0.000000)
   2 Pd ( 0.000000,  0.000000,  0.000000)
   3 Pd ( 0.000000,  0.000000, -0.000000)
   4 Pd ( 0.000000,  0.000000, -0.000000)
   5 Pd ( 0.000000,  0.000000,  0.000000)
   6 Pd ( 0.000000,  0.000000, -0.000000)
   7 Pd ( 0.000000,  0.000000,  0.000000)
   8 Pd ( 0.000000,  0.000000, -0.000000)
   9 Pd ( 0.000000,  0.000000, -0.000000)
  10 Pd ( 0.000000,  0.000000,  0.000000)
  11 Pd ( 0.000000,  0.000000,  0.000000)
  12 Pd ( 0.000000,  0.000000, -0.000000)
  13 Pd ( 0.000000,  0.000000,  0.000000)
  14 Pd ( 0.000000,  0.000000,  0.000000)
  15 Pd ( 0.000000,  0.000000,  0.000000)
  16 Pd ( 0.000000,  0.000000,  0.000000)
  17 Pd ( 0.000000,  0.000000,  0.000000)
  18 Pd ( 0.000000,  0.000000,  0.000000)
  19 Pd ( 0.000000,  0.000000, -0.000000)
  20 Pd ( 0.000000,  0.000000, -0.000000)
  21 Pd ( 0.000000,  0.000000,  0.000000)
  22 Pd ( 0.000000,  0.000000,  0.000000)
  23 Pd ( 0.000000,  0.000000, -0.000000)
  24 Pd ( 0.000000,  0.000000,  0.000000)
  25 Pd ( 0.000000,  0.000000,  0.000000)
  26 Pd ( 0.000000,  0.000000,  0.000000)
  27 Pd ( 0.000000,  0.000000,  0.000000)
  28 Pd ( 0.000000,  0.000000,  0.000000)
  29 Pd ( 0.000000,  0.000000,  0.000000)
  30 Pd ( 0.000000,  0.000000, -0.000000)
  31 Pd ( 0.000000,  0.000000,  0.000000)
  32 Pd ( 0.000000,  0.000000, -0.000000)
  33 Pd ( 0.000000,  0.000000, -0.000000)
  34 Pd ( 0.000000,  0.000000,  0.000000)
  35 Pd ( 0.000000,  0.000000, -0.000000)
  36 O  ( 0.000000,  0.000000, -0.000000)
  37 H  ( 0.000000,  0.000000, -0.000000)

Energy contributions relative to reference atoms: (reference = -4942243.008314)

Kinetic:       -1956.475767
Potential:     +1717.056866
External:        +0.000000
XC:            +136.062451
Entropy (-ST):   -2.404703
Local:           +2.936678
SIC:             +0.000000
--------------------------
Free energy:   -102.824474
Extrapolated:  -101.622123

Spin contamination: 0.000000 electrons
Showing only first 2 kpts
                      Up                     Down
 Kpt  Band  Eigenvalues  Occupancy  Eigenvalues  Occupancy
  0   289     -6.60691    0.94755     -6.60691    0.94755
  0   290     -6.60526    0.94673     -6.60526    0.94673
  0   291     -6.53224    0.89544     -6.53224    0.89544
  0   292     -6.52357    0.88703     -6.52357    0.88703

  1   289     -6.36558    0.61794     -6.36558    0.61794
  1   290     -6.30585    0.47093     -6.30585    0.47093
  1   291     -6.20413    0.24350     -6.20413    0.24350
  1   292     -6.20300    0.24142     -6.20300    0.24142


Fermi level: -6.31749

No gap
No difference between direct/indirect transitions

Forces in eV/Ang:
  0 Pd    0.00335    0.00194   -0.49273
  1 Pd    0.00063   -0.00042   -0.49766
  2 Pd   -0.00204    0.00336   -0.49230
  3 Pd   -0.00005    0.00076   -0.49766
  4 Pd    0.00113    0.00065   -0.49279
  5 Pd   -0.00027   -0.00031   -0.49144
  6 Pd    0.00189   -0.00345   -0.49230
  7 Pd   -0.00040   -0.00007   -0.49144
  8 Pd    0.00044    0.00025   -0.49236
  9 Pd   -0.00400   -0.00231    0.49550
 10 Pd    0.00529    0.00073    0.50077
 11 Pd    0.00145    0.00764    0.51148
 12 Pd    0.00327    0.00421    0.50077
 13 Pd    0.00097    0.00056    0.52423
 14 Pd   -0.00346   -0.00138    0.50911
 15 Pd    0.00734   -0.00256    0.51148
 16 Pd   -0.00293   -0.00231    0.50911
 17 Pd   -0.00307   -0.00177    0.49616
 18 Pd   -0.02888    0.01547    0.12868
 19 Pd    0.01241    0.00716    0.08828
 20 Pd    0.01592    0.02304    0.13841
 21 Pd   -0.00825    0.00789    0.09091
 22 Pd    0.02791    0.00227    0.13841
 23 Pd   -0.01966   -0.01135    0.19397
 24 Pd   -0.00076   -0.00044    0.07332
 25 Pd   -0.00104   -0.03275    0.12868
 26 Pd    0.00271   -0.01109    0.09091
 27 Pd   -0.00579   -0.00334   -0.03069
 28 Pd   -0.00374   -0.00286   -0.03244
 29 Pd    0.00481   -0.01040   -0.03706
 30 Pd   -0.00435   -0.00181   -0.03244
 31 Pd   -0.01608   -0.00928    0.00812
 32 Pd    0.01602   -0.02192    0.08669
 33 Pd   -0.00660    0.00936   -0.03706
 34 Pd   -0.01097    0.02483    0.08669
 35 Pd    0.00601    0.00347    0.00131
 36 O    -0.00011   -0.00006   -1.16929
 37 H     0.00755    0.00436    0.22360

System changes: positions 

Initializing position-dependent things.

Density initialized from wave functions
                                           
                                           
                                           
                                           
                                           
                        O                  
                                           
                        H                  
                Pd     Pd     Pd           
            Pd    Pd     Pd                
                 Pd     Pd     Pd          
       Pd    PPd   PPd    Pd               
                                           
        Pd     Pd   PPd    Pd    Pd        
                                           
                Pd    Pd     Pd            
           Pd    Pd     Pd                 
                Pd     Pd     Pd           
            Pd    Pd     Pd                
       Pd     Pd    Pd                     
                                           
                                           
                                           
                                           

Atomic positions and initial magnetic moments

Positions:
   0 Pd     0.000000    0.000000   10.000000    ( 0.0000,  0.0000,  0.0000)
   1 Pd     2.715573    0.000000   10.000000    ( 0.0000,  0.0000,  0.0000)
   2 Pd     5.431146    0.000000   10.000000    ( 0.0000,  0.0000,  0.0000)
   3 Pd     1.357786    2.351755   10.000000    ( 0.0000,  0.0000,  0.0000)
   4 Pd     4.073359    2.351755   10.000000    ( 0.0000,  0.0000,  0.0000)
   5 Pd     6.788932    2.351755   10.000000    ( 0.0000,  0.0000,  0.0000)
   6 Pd     2.715573    4.703510   10.000000    ( 0.0000,  0.0000,  0.0000)
   7 Pd     5.431146    4.703510   10.000000    ( 0.0000,  0.0000,  0.0000)
   8 Pd     8.146719    4.703510   10.000000    ( 0.0000,  0.0000,  0.0000)
   9 Pd     1.357786    0.783918   12.217256    ( 0.0000,  0.0000,  0.0000)
  10 Pd     4.073359    0.783918   12.217256    ( 0.0000,  0.0000,  0.0000)
  11 Pd     6.788932    0.783918   12.217256    ( 0.0000,  0.0000,  0.0000)
  12 Pd     2.715573    3.135673   12.217256    ( 0.0000,  0.0000,  0.0000)
  13 Pd     5.431146    3.135673   12.217256    ( 0.0000,  0.0000,  0.0000)
  14 Pd     8.146719    3.135673   12.217256    ( 0.0000,  0.0000,  0.0000)
  15 Pd     4.073359    5.487429   12.217256    ( 0.0000,  0.0000,  0.0000)
  16 Pd     6.788932    5.487429   12.217256    ( 0.0000,  0.0000,  0.0000)
  17 Pd     9.504505    5.487429   12.217256    ( 0.0000,  0.0000,  0.0000)
  18 Pd    -0.004579    1.570827   14.477581    ( 0.0000,  0.0000,  0.0000)
  19 Pd     2.719117    1.569882   14.474503    ( 0.0000,  0.0000,  0.0000)
  20 Pd     5.435158    1.570335   14.479996    ( 0.0000,  0.0000,  0.0000)
  21 Pd     1.354598    3.920727   14.468018    ( 0.0000,  0.0000,  0.0000)
  22 Pd     4.077530    3.921816   14.479996    ( 0.0000,  0.0000,  0.0000)
  23 Pd     6.787667    3.918861   14.482899    ( 0.0000,  0.0000,  0.0000)
  24 Pd     2.716283    6.271756   14.462340    ( 0.0000,  0.0000,  0.0000)
  25 Pd     5.431447    6.265885   14.477581    ( 0.0000,  0.0000,  0.0000)
  26 Pd     8.146108    6.268017   14.468018    ( 0.0000,  0.0000,  0.0000)
  27 Pd     0.001326    0.000765   16.787774    ( 0.0000,  0.0000,  0.0000)
  28 Pd     2.716273   -0.000840   16.785198    ( 0.0000,  0.0000,  0.0000)
  29 Pd     5.428745    0.000068   16.786460    ( 0.0000,  0.0000,  0.0000)
  30 Pd     1.357410    2.352780   16.785198    ( 0.0000,  0.0000,  0.0000)
  31 Pd     4.076053    2.353309   16.832344    ( 0.0000,  0.0000,  0.0000)
  32 Pd     6.781939    2.355056   16.913289    ( 0.0000,  0.0000,  0.0000)
  33 Pd     2.714432    4.701396   16.786460    ( 0.0000,  0.0000,  0.0000)
  34 Pd     5.430509    4.695802   16.913290    ( 0.0000,  0.0000,  0.0000)
  35 Pd     8.142101    4.700843   16.834087    ( 0.0000,  0.0000,  0.0000)
  36 O      6.110037    3.527632   19.554175    ( 0.0000,  0.0000,  0.0000)
  37 H      6.114000    3.529919   18.483672    ( 0.0000,  0.0000,  0.0000)

Unit cell:
           periodic     x           y           z      points  spacing
  1. axis:    yes    8.146719    0.000000    0.000000    36     0.1960
  2. axis:    yes    4.073359    7.055265    0.000000    36     0.1960
  3. axis:    no     0.000000    0.000000   26.651768   132     0.2019

  Lengths:   8.146719   8.146719  26.651768
  Angles:   90.000000  90.000000  60.000000

Effective grid spacing dv^(1/3) = 0.2077

     iter     time        total  log10-change:  magmom
                         energy   eigst   dens
iter:   1 23:19:43  -102.168494        c          -0.0000
iter:   2 23:29:04  -101.864349        c -2.66    -0.0000
iter:   3 23:36:44  -103.644132        c -2.68    -0.0000
iter:   4 23:44:49  -101.912989        c -1.97    -0.0000
iter:   5 23:52:14  -101.788767        c -2.63    -0.0000
iter:   6 00:00:05  -101.787089c       c -3.26    -0.0000
iter:   7 00:08:29  -101.786599c       c -3.26    -0.0000
iter:   8 00:16:40  -101.783228c       c -3.41    -0.0000
iter:   9 00:24:29  -101.776666c       c -3.15    -0.0000
iter:  10 00:31:23  -101.777689c       c -3.79    -0.0000
iter:  11 00:39:05  -101.776604c       c -3.72    -0.0000
iter:  12 00:46:52  -101.775669c       c -4.02c   -0.0000

Converged after 12 iterations.

Dipole moment: (-13.290613, -7.673242, -0.784219) |e|*Ang

Total magnetic moment: (0.000000, 0.000000, -0.000000)
Local magnetic moments:
   0 Pd ( 0.000000,  0.000000, -0.000000)
   1 Pd ( 0.000000,  0.000000, -0.000000)
   2 Pd ( 0.000000,  0.000000, -0.000000)
   3 Pd ( 0.000000,  0.000000,  0.000000)
   4 Pd ( 0.000000,  0.000000, -0.000000)
   5 Pd ( 0.000000,  0.000000, -0.000000)
   6 Pd ( 0.000000,  0.000000, -0.000000)
   7 Pd ( 0.000000,  0.000000, -0.000000)
   8 Pd ( 0.000000,  0.000000, -0.000000)
   9 Pd ( 0.000000,  0.000000, -0.000000)
  10 Pd ( 0.000000,  0.000000, -0.000000)
  11 Pd ( 0.000000,  0.000000, -0.000000)
  12 Pd ( 0.000000,  0.000000, -0.000000)
  13 Pd ( 0.000000,  0.000000, -0.000000)
  14 Pd ( 0.000000,  0.000000, -0.000000)
  15 Pd ( 0.000000,  0.000000, -0.000000)
  16 Pd ( 0.000000,  0.000000, -0.000000)
  17 Pd ( 0.000000,  0.000000, -0.000000)
  18 Pd ( 0.000000,  0.000000, -0.000000)
  19 Pd ( 0.000000,  0.000000, -0.000000)
  20 Pd ( 0.000000,  0.000000, -0.000000)
  21 Pd ( 0.000000,  0.000000, -0.000000)
  22 Pd ( 0.000000,  0.000000, -0.000000)
  23 Pd ( 0.000000,  0.000000, -0.000000)
  24 Pd ( 0.000000,  0.000000, -0.000000)
  25 Pd ( 0.000000,  0.000000, -0.000000)
  26 Pd ( 0.000000,  0.000000,  0.000000)
  27 Pd ( 0.000000,  0.000000, -0.000000)
  28 Pd ( 0.000000,  0.000000,  0.000000)
  29 Pd ( 0.000000,  0.000000, -0.000000)
  30 Pd ( 0.000000,  0.000000,  0.000000)
  31 Pd ( 0.000000,  0.000000,  0.000000)
  32 Pd ( 0.000000,  0.000000, -0.000000)
  33 Pd ( 0.000000,  0.000000, -0.000000)
  34 Pd ( 0.000000,  0.000000, -0.000000)
  35 Pd ( 0.000000,  0.000000, -0.000000)
  36 O  ( 0.000000,  0.000000, -0.000000)
  37 H  ( 0.000000,  0.000000,  0.000000)

Energy contributions relative to reference atoms: (reference = -4942243.008314)

Kinetic:       -1968.999313
Potential:     +1728.128056
External:        +0.000000
XC:            +137.317386
Entropy (-ST):   -2.337307
Local:           +2.946855
SIC:             +0.000000
--------------------------
Free energy:   -102.944322
Extrapolated:  -101.775669

Spin contamination: 0.000000 electrons
Showing only first 2 kpts
                      Up                     Down
 Kpt  Band  Eigenvalues  Occupancy  Eigenvalues  Occupancy
  0   289     -6.58910    0.94693     -6.58910    0.94693
  0   290     -6.58508    0.94488     -6.58508    0.94488
  0   291     -6.55881    0.92948     -6.55881    0.92948
  0   292     -6.52247    0.90163     -6.52247    0.90163

  1   289     -6.34899    0.61788     -6.34899    0.61788
  1   290     -6.28587    0.46242     -6.28587    0.46242
  1   291     -6.18929    0.24668     -6.18929    0.24668
  1   292     -6.18384    0.23669     -6.18384    0.23669


Fermi level: -6.30093

No gap
No difference between direct/indirect transitions

Forces in eV/Ang:
  0 Pd    0.00543    0.00314   -0.49721
  1 Pd    0.00048   -0.00061   -0.50657
  2 Pd   -0.00360    0.00374   -0.49566
  3 Pd   -0.00029    0.00072   -0.50657
  4 Pd   -0.00183   -0.00106   -0.49354
  5 Pd    0.00281   -0.00191   -0.48999
  6 Pd    0.00144   -0.00499   -0.49566
  7 Pd   -0.00025    0.00339   -0.48999
  8 Pd    0.00154    0.00089   -0.49517
  9 Pd   -0.00798   -0.00461    0.46963
 10 Pd    0.01260    0.01143    0.46236
 11 Pd    0.00057    0.02621    0.47399
 12 Pd    0.01620    0.00520    0.46236
 13 Pd    0.00383    0.00221    0.52543
 14 Pd   -0.01820   -0.00440    0.47931
 15 Pd    0.02299   -0.01262    0.47399
 16 Pd   -0.01291   -0.01356    0.47931
 17 Pd   -0.00692   -0.00400    0.43236
 18 Pd   -0.02934    0.01563    0.33317
 19 Pd    0.01111    0.00641    0.24911
 20 Pd    0.00494    0.03618    0.35059
 21 Pd   -0.00156    0.00712    0.28498
 22 Pd    0.03380   -0.01381    0.35059
 23 Pd   -0.02852   -0.01647    0.45954
 24 Pd   -0.00441   -0.00254    0.26207
 25 Pd   -0.00114   -0.03323    0.33317
 26 Pd    0.00539   -0.00491    0.28498
 27 Pd   -0.02236   -0.01291   -0.12248
 28 Pd   -0.01404   -0.01007   -0.12116
 29 Pd    0.02398   -0.02022   -0.13892
 30 Pd   -0.01574   -0.00712   -0.12116
 31 Pd   -0.06534   -0.03773   -0.19223
 32 Pd    0.13433   -0.19077   -0.26309
 33 Pd   -0.00552    0.03088   -0.13892
 34 Pd   -0.09805    0.21172   -0.26309
 35 Pd    0.03921    0.02264   -0.20881
 36 O    -0.00231   -0.00133   -1.25867
 37 H     0.01136    0.00656    0.39948

System changes: positions 

Initializing position-dependent things.

Density initialized from wave functions
                                           
                                           
                                           
                                           
                                           
                        O                  
                        H                  
                       Pd                  
                Pd            Pd           
            Pd   PPd    PPd    Pd          
       Pd     Pd    Pd                     
             Pd    Pd     Pd               
        Pd     Pd    Pd                    
                    Pd     Pd    Pd        
                Pd    Pd     Pd            
           Pd    Pd     Pd                 
                Pd     Pd     Pd           
            Pd    Pd     Pd                
       Pd     Pd    Pd                     
                                           
                                           
                                           
                                           

Atomic positions and initial magnetic moments

Positions:
   0 Pd     0.000000    0.000000   10.000000    ( 0.0000,  0.0000,  0.0000)
   1 Pd     2.715573    0.000000   10.000000    ( 0.0000,  0.0000,  0.0000)
   2 Pd     5.431146    0.000000   10.000000    ( 0.0000,  0.0000,  0.0000)
   3 Pd     1.357786    2.351755   10.000000    ( 0.0000,  0.0000,  0.0000)
   4 Pd     4.073359    2.351755   10.000000    ( 0.0000,  0.0000,  0.0000)
   5 Pd     6.788932    2.351755   10.000000    ( 0.0000,  0.0000,  0.0000)
   6 Pd     2.715573    4.703510   10.000000    ( 0.0000,  0.0000,  0.0000)
   7 Pd     5.431146    4.703510   10.000000    ( 0.0000,  0.0000,  0.0000)
   8 Pd     8.146719    4.703510   10.000000    ( 0.0000,  0.0000,  0.0000)
   9 Pd     1.357786    0.783918   12.217256    ( 0.0000,  0.0000,  0.0000)
  10 Pd     4.073359    0.783918   12.217256    ( 0.0000,  0.0000,  0.0000)
  11 Pd     6.788932    0.783918   12.217256    ( 0.0000,  0.0000,  0.0000)
  12 Pd     2.715573    3.135673   12.217256    ( 0.0000,  0.0000,  0.0000)
  13 Pd     5.431146    3.135673   12.217256    ( 0.0000,  0.0000,  0.0000)
  14 Pd     8.146719    3.135673   12.217256    ( 0.0000,  0.0000,  0.0000)
  15 Pd     4.073359    5.487429   12.217256    ( 0.0000,  0.0000,  0.0000)
  16 Pd     6.788932    5.487429   12.217256    ( 0.0000,  0.0000,  0.0000)
  17 Pd     9.504505    5.487429   12.217256    ( 0.0000,  0.0000,  0.0000)
  18 Pd    -0.007112    1.572419   14.481165    ( 0.0000,  0.0000,  0.0000)
  19 Pd     2.720863    1.570890   14.475107    ( 0.0000,  0.0000,  0.0000)
  20 Pd     5.436965    1.572130   14.484957    ( 0.0000,  0.0000,  0.0000)
  21 Pd     1.353218    3.921372   14.466601    ( 0.0000,  0.0000,  0.0000)
  22 Pd     4.079988    3.922484   14.484957    ( 0.0000,  0.0000,  0.0000)
  23 Pd     6.786575    3.918230   14.491277    ( 0.0000,  0.0000,  0.0000)
  24 Pd     2.716500    6.271882   14.458044    ( 0.0000,  0.0000,  0.0000)
  25 Pd     5.431558    6.262895   14.481165    ( 0.0000,  0.0000,  0.0000)
  26 Pd     8.145976    6.266500   14.466601    ( 0.0000,  0.0000,  0.0000)
  27 Pd     0.001451    0.000837   16.793151    ( 0.0000,  0.0000,  0.0000)
  28 Pd     2.716320   -0.001333   16.789514    ( 0.0000,  0.0000,  0.0000)
  29 Pd     5.428231   -0.000345   16.790947    ( 0.0000,  0.0000,  0.0000)
  30 Pd     1.357007    2.353066   16.789514    ( 0.0000,  0.0000,  0.0000)
  31 Pd     4.075817    2.353173   16.855122    ( 0.0000,  0.0000,  0.0000)
  32 Pd     6.781790    2.352482   16.968887    ( 0.0000,  0.0000,  0.0000)
  33 Pd     2.713818    4.701157   16.790947    ( 0.0000,  0.0000,  0.0000)
  34 Pd     5.428205    4.696960   16.968887    ( 0.0000,  0.0000,  0.0000)
  35 Pd     8.141041    4.700231   16.857265    ( 0.0000,  0.0000,  0.0000)
  36 O      6.109997    3.527608   19.432631    ( 0.0000,  0.0000,  0.0000)
  37 H      6.115907    3.531020   18.375891    ( 0.0000,  0.0000,  0.0000)

Unit cell:
           periodic     x           y           z      points  spacing
  1. axis:    yes    8.146719    0.000000    0.000000    36     0.1960
  2. axis:    yes    4.073359    7.055265    0.000000    36     0.1960
  3. axis:    no     0.000000    0.000000   26.651768   132     0.2019

  Lengths:   8.146719   8.146719  26.651768
  Angles:   90.000000  90.000000  60.000000

Effective grid spacing dv^(1/3) = 0.2077

     iter     time        total  log10-change:  magmom
                         energy   eigst   dens
iter:   1 01:08:45  -102.137416        c          -0.0000
iter:   2 01:15:57  -107.960667        c -2.39    -0.0000
iter:   3 01:23:41  -102.225134        c -1.80    -0.0000
iter:   4 01:30:46  -102.204609        c -2.34    -0.0000
iter:   5 01:39:10  -101.899775        c -2.34    -0.0000
iter:   6 01:47:17  -101.852078        c -2.73    -0.0000
iter:   7 01:54:50  -101.844818c       c -3.06    -0.0000
iter:   8 02:03:27  -101.838482c       c -3.17    -0.0000
iter:   9 02:11:17  -101.837171c       c -3.61    +0.0000
iter:  10 02:18:12  -101.836187c       c -3.82    +0.0000
iter:  11 02:25:46  -101.836969c       c -3.93    +0.0000
iter:  12 02:32:39  -101.836332c       c -3.89    +0.0000
iter:  13 02:40:54  -101.835953c       c -4.29c   +0.0000

Converged after 13 iterations.

Dipole moment: (-13.336910, -7.699947, -0.764634) |e|*Ang

Total magnetic moment: (0.000000, 0.000000, 0.000000)
Local magnetic moments:
   0 Pd ( 0.000000,  0.000000,  0.000000)
   1 Pd ( 0.000000,  0.000000, -0.000000)
   2 Pd ( 0.000000,  0.000000,  0.000000)
   3 Pd ( 0.000000,  0.000000,  0.000000)
   4 Pd ( 0.000000,  0.000000, -0.000000)
   5 Pd ( 0.000000,  0.000000,  0.000000)
   6 Pd ( 0.000000,  0.000000,  0.000000)
   7 Pd ( 0.000000,  0.000000,  0.000000)
   8 Pd ( 0.000000,  0.000000,  0.000000)
   9 Pd ( 0.000000,  0.000000, -0.000000)
  10 Pd ( 0.000000,  0.000000,  0.000000)
  11 Pd ( 0.000000,  0.000000,  0.000000)
  12 Pd ( 0.000000,  0.000000,  0.000000)
  13 Pd ( 0.000000,  0.000000,  0.000000)
  14 Pd ( 0.000000,  0.000000,  0.000000)
  15 Pd ( 0.000000,  0.000000,  0.000000)
  16 Pd ( 0.000000,  0.000000,  0.000000)
  17 Pd ( 0.000000,  0.000000,  0.000000)
  18 Pd ( 0.000000,  0.000000,  0.000000)
  19 Pd ( 0.000000,  0.000000,  0.000000)
  20 Pd ( 0.000000,  0.000000,  0.000000)
  21 Pd ( 0.000000,  0.000000,  0.000000)
  22 Pd ( 0.000000,  0.000000,  0.000000)
  23 Pd ( 0.000000,  0.000000,  0.000000)
  24 Pd ( 0.000000,  0.000000,  0.000000)
  25 Pd ( 0.000000,  0.000000,  0.000000)
  26 Pd ( 0.000000,  0.000000,  0.000000)
  27 Pd ( 0.000000,  0.000000,  0.000000)
  28 Pd ( 0.000000,  0.000000,  0.000000)
  29 Pd ( 0.000000,  0.000000,  0.000000)
  30 Pd ( 0.000000,  0.000000, -0.000000)
  31 Pd ( 0.000000,  0.000000,  0.000000)
  32 Pd ( 0.000000,  0.000000,  0.000000)
  33 Pd ( 0.000000,  0.000000,  0.000000)
  34 Pd ( 0.000000,  0.000000,  0.000000)
  35 Pd ( 0.000000,  0.000000,  0.000000)
  36 O  ( 0.000000,  0.000000,  0.000000)
  37 H  ( 0.000000,  0.000000, -0.000000)

Energy contributions relative to reference atoms: (reference = -4942243.008314)

Kinetic:       -1975.341328
Potential:     +1733.957697
External:        +0.000000
XC:            +137.734535
Entropy (-ST):   -2.300184
Local:           +2.963236
SIC:             +0.000000
--------------------------
Free energy:   -102.986045
Extrapolated:  -101.835953

Spin contamination: 0.000000 electrons
Showing only first 2 kpts
                      Up                     Down
 Kpt  Band  Eigenvalues  Occupancy  Eigenvalues  Occupancy
  0   289     -6.57234    0.94911     -6.57234    0.94911
  0   290     -6.56196    0.94385     -6.56196    0.94385
  0   291     -6.55739    0.94138     -6.55739    0.94138
  0   292     -6.50715    0.90669     -6.50715    0.90669

  1   289     -6.32920    0.62115     -6.32920    0.62115
  1   290     -6.26088    0.45293     -6.26088    0.45293
  1   291     -6.17236    0.25464     -6.17236    0.25464
  1   292     -6.16513    0.24116     -6.16513    0.24116


Fermi level: -6.27976

No gap
No difference between direct/indirect transitions

Forces in eV/Ang:
  0 Pd    0.00557    0.00321   -0.49103
  1 Pd    0.00030   -0.00052   -0.50402
  2 Pd   -0.00363    0.00244   -0.48901
  3 Pd   -0.00030    0.00052   -0.50402
  4 Pd   -0.00353   -0.00204   -0.48582
  5 Pd    0.00402   -0.00233   -0.48137
  6 Pd    0.00030   -0.00437   -0.48901
  7 Pd   -0.00001    0.00465   -0.48137
  8 Pd    0.00276    0.00160   -0.48890
  9 Pd   -0.01169   -0.00675    0.48570
 10 Pd    0.01800    0.01924    0.46736
 11 Pd   -0.00029    0.03849    0.48090
 12 Pd    0.02566    0.00597    0.46736
 13 Pd    0.00746    0.00431    0.56177
 14 Pd   -0.03059   -0.00472    0.49548
 15 Pd    0.03319   -0.01949    0.48090
 16 Pd   -0.01938   -0.02413    0.49549
 17 Pd   -0.00973   -0.00562    0.42041
 18 Pd   -0.01439    0.00439    0.38360
 19 Pd    0.00465    0.00268    0.29065
 20 Pd   -0.01193    0.02988    0.39893
 21 Pd    0.00557    0.00360    0.34141
 22 Pd    0.01991   -0.02527    0.39893
 23 Pd   -0.01989   -0.01148    0.51926
 24 Pd   -0.00480   -0.00277    0.32111
 25 Pd   -0.00340   -0.01466    0.38360
 26 Pd    0.00590    0.00302    0.34141
 27 Pd   -0.02891   -0.01669   -0.16262
 28 Pd   -0.01612   -0.01378   -0.16179
 29 Pd    0.02904   -0.01911   -0.18578
 30 Pd   -0.01999   -0.00707   -0.16179
 31 Pd   -0.07032   -0.04060   -0.26719
 32 Pd    0.24296   -0.37342   -0.54571
 33 Pd   -0.00203    0.03470   -0.18578
 34 Pd   -0.20191    0.39711   -0.54571
 35 Pd    0.03567    0.02059   -0.28639
 36 O    -0.00776   -0.00448   -0.81825
 37 H     0.01836    0.01060    0.20007

System changes: positions 

Initializing position-dependent things.

Density initialized from wave functions
                                           
                                           
                                           
                                           
                                           
                        O                  
                        H                  
                       Pd     Pd           
                Pd                         
            Pd   PPd    PPd    Pd          
       Pd     Pd    Pd                     
             Pd    Pd     Pd               
        Pd     Pd    Pd                    
                    Pd     Pd    Pd        
                Pd    Pd     Pd            
           Pd    Pd     Pd                 
                Pd     Pd     Pd           
            Pd    Pd     Pd                
       Pd     Pd    Pd                     
                                           
                                           
                                           
                                           

Atomic positions and initial magnetic moments

Positions:
   0 Pd     0.000000    0.000000   10.000000    ( 0.0000,  0.0000,  0.0000)
   1 Pd     2.715573    0.000000   10.000000    ( 0.0000,  0.0000,  0.0000)
   2 Pd     5.431146    0.000000   10.000000    ( 0.0000,  0.0000,  0.0000)
   3 Pd     1.357786    2.351755   10.000000    ( 0.0000,  0.0000,  0.0000)
   4 Pd     4.073359    2.351755   10.000000    ( 0.0000,  0.0000,  0.0000)
   5 Pd     6.788932    2.351755   10.000000    ( 0.0000,  0.0000,  0.0000)
   6 Pd     2.715573    4.703510   10.000000    ( 0.0000,  0.0000,  0.0000)
   7 Pd     5.431146    4.703510   10.000000    ( 0.0000,  0.0000,  0.0000)
   8 Pd     8.146719    4.703510   10.000000    ( 0.0000,  0.0000,  0.0000)
   9 Pd     1.357786    0.783918   12.217256    ( 0.0000,  0.0000,  0.0000)
  10 Pd     4.073359    0.783918   12.217256    ( 0.0000,  0.0000,  0.0000)
  11 Pd     6.788932    0.783918   12.217256    ( 0.0000,  0.0000,  0.0000)
  12 Pd     2.715573    3.135673   12.217256    ( 0.0000,  0.0000,  0.0000)
  13 Pd     5.431146    3.135673   12.217256    ( 0.0000,  0.0000,  0.0000)
  14 Pd     8.146719    3.135673   12.217256    ( 0.0000,  0.0000,  0.0000)
  15 Pd     4.073359    5.487429   12.217256    ( 0.0000,  0.0000,  0.0000)
  16 Pd     6.788932    5.487429   12.217256    ( 0.0000,  0.0000,  0.0000)
  17 Pd     9.504505    5.487429   12.217256    ( 0.0000,  0.0000,  0.0000)
  18 Pd    -0.007994    1.572896   14.489105    ( 0.0000,  0.0000,  0.0000)
  19 Pd     2.721401    1.571201   14.480609    ( 0.0000,  0.0000,  0.0000)
  20 Pd     5.437186    1.573135   14.493550    ( 0.0000,  0.0000,  0.0000)
  21 Pd     1.352972    3.921601   14.472500    ( 0.0000,  0.0000,  0.0000)
  22 Pd     4.080968    3.922173   14.493550    ( 0.0000,  0.0000,  0.0000)
  23 Pd     6.785943    3.917865   14.502937    ( 0.0000,  0.0000,  0.0000)
  24 Pd     2.716465    6.271861   14.462830    ( 0.0000,  0.0000,  0.0000)
  25 Pd     5.431530    6.261893   14.489106    ( 0.0000,  0.0000,  0.0000)
  26 Pd     8.146052    6.266172   14.472500    ( 0.0000,  0.0000,  0.0000)
  27 Pd     0.000949    0.000546   16.791518    ( 0.0000,  0.0000,  0.0000)
  28 Pd     2.716022   -0.001732   16.787616    ( 0.0000,  0.0000,  0.0000)
  29 Pd     5.428648   -0.000797   16.788649    ( 0.0000,  0.0000,  0.0000)
  30 Pd     1.356512    2.353008   16.787616    ( 0.0000,  0.0000,  0.0000)
  31 Pd     4.074510    2.352418   16.856222    ( 0.0000,  0.0000,  0.0000)
  32 Pd     6.786156    2.345062   16.973917    ( 0.0000,  0.0000,  0.0000)
  33 Pd     2.713635    4.701743   16.788649    ( 0.0000,  0.0000,  0.0000)
  34 Pd     5.423962    4.704450   16.973917    ( 0.0000,  0.0000,  0.0000)
  35 Pd     8.141366    4.700419   16.858126    ( 0.0000,  0.0000,  0.0000)
  36 O      6.109843    3.527520   19.384799    ( 0.0000,  0.0000,  0.0000)
  37 H      6.116744    3.531504   18.350651    ( 0.0000,  0.0000,  0.0000)

Unit cell:
           periodic     x           y           z      points  spacing
  1. axis:    yes    8.146719    0.000000    0.000000    36     0.1960
  2. axis:    yes    4.073359    7.055265    0.000000    36     0.1960
  3. axis:    no     0.000000    0.000000   26.651768   132     0.2019

  Lengths:   8.146719   8.146719  26.651768
  Angles:   90.000000  90.000000  60.000000

Effective grid spacing dv^(1/3) = 0.2077

     iter     time        total  log10-change:  magmom
                         energy   eigst   dens
iter:   1 03:02:37  -101.968923        c          +0.0000
iter:   2 03:10:37  -103.830669        c -2.65    +0.0000
iter:   3 03:17:25  -102.549550        c -1.99    +0.0000
iter:   4 03:24:48  -101.911295        c -2.22    +0.0000
iter:   5 03:32:41  -101.889814        c -3.06    +0.0000
iter:   6 03:41:57  -101.886607c       c -3.62    +0.0000
iter:   7 03:51:01  -101.885544c       c -3.73    +0.0000
iter:   8 03:58:21  -101.885897c       c -3.51    +0.0000
iter:   9 04:05:59  -101.885321c       c -4.04c   +0.0000

Converged after 9 iterations.

Dipole moment: (-13.285490, -7.670255, -0.754450) |e|*Ang

Total magnetic moment: (0.000000, 0.000000, 0.000000)
Local magnetic moments:
   0 Pd ( 0.000000,  0.000000,  0.000000)
   1 Pd ( 0.000000,  0.000000,  0.000000)
   2 Pd ( 0.000000,  0.000000,  0.000000)
   3 Pd ( 0.000000,  0.000000,  0.000000)
   4 Pd ( 0.000000,  0.000000,  0.000000)
   5 Pd ( 0.000000,  0.000000,  0.000000)
   6 Pd ( 0.000000,  0.000000,  0.000000)
   7 Pd ( 0.000000,  0.000000,  0.000000)
   8 Pd ( 0.000000,  0.000000,  0.000000)
   9 Pd ( 0.000000,  0.000000,  0.000000)
  10 Pd ( 0.000000,  0.000000,  0.000000)
  11 Pd ( 0.000000,  0.000000,  0.000000)
  12 Pd ( 0.000000,  0.000000,  0.000000)
  13 Pd ( 0.000000,  0.000000,  0.000000)
  14 Pd ( 0.000000,  0.000000,  0.000000)
  15 Pd ( 0.000000,  0.000000,  0.000000)
  16 Pd ( 0.000000,  0.000000,  0.000000)
  17 Pd ( 0.000000,  0.000000,  0.000000)
  18 Pd ( 0.000000,  0.000000,  0.000000)
  19 Pd ( 0.000000,  0.000000,  0.000000)
  20 Pd ( 0.000000,  0.000000,  0.000000)
  21 Pd ( 0.000000,  0.000000,  0.000000)
  22 Pd ( 0.000000,  0.000000,  0.000000)
  23 Pd ( 0.000000,  0.000000,  0.000000)
  24 Pd ( 0.000000,  0.000000,  0.000000)
  25 Pd ( 0.000000,  0.000000,  0.000000)
  26 Pd ( 0.000000,  0.000000,  0.000000)
  27 Pd ( 0.000000,  0.000000,  0.000000)
  28 Pd ( 0.000000,  0.000000,  0.000000)
  29 Pd ( 0.000000,  0.000000,  0.000000)
  30 Pd ( 0.000000,  0.000000,  0.000000)
  31 Pd ( 0.000000,  0.000000,  0.000000)
  32 Pd ( 0.000000,  0.000000,  0.000000)
  33 Pd ( 0.000000,  0.000000,  0.000000)
  34 Pd ( 0.000000,  0.000000,  0.000000)
  35 Pd ( 0.000000,  0.000000,  0.000000)
  36 O  ( 0.000000,  0.000000,  0.000000)
  37 H  ( 0.000000,  0.000000, -0.000000)

Energy contributions relative to reference atoms: (reference = -4942243.008314)

Kinetic:       -1975.282432
Potential:     +1734.011165
External:        +0.000000
XC:            +137.510598
Entropy (-ST):   -2.296050
Local:           +3.023373
SIC:             +0.000000
--------------------------
Free energy:   -103.033346
Extrapolated:  -101.885321

Spin contamination: 0.000000 electrons
Showing only first 2 kpts
                      Up                     Down
 Kpt  Band  Eigenvalues  Occupancy  Eigenvalues  Occupancy
  0   289     -6.56739    0.95064     -6.56739    0.95064
  0   290     -6.55488    0.94443     -6.55488    0.94443
  0   291     -6.55192    0.94285     -6.55192    0.94285
  0   292     -6.50122    0.90857     -6.50122    0.90857

  1   289     -6.32034    0.61951     -6.32034    0.61951
  1   290     -6.24928    0.44445     -6.24928    0.44445
  1   291     -6.16471    0.25563     -6.16471    0.25563
  1   292     -6.15690    0.24105     -6.15690    0.24105


Fermi level: -6.27159

No gap
No difference between direct/indirect transitions

Forces in eV/Ang:
  0 Pd    0.00423    0.00244   -0.49135
  1 Pd    0.00064   -0.00145   -0.50558
  2 Pd   -0.00272    0.00050   -0.48968
  3 Pd   -0.00093    0.00128   -0.50558
  4 Pd   -0.00343   -0.00198   -0.48577
  5 Pd    0.00436   -0.00226   -0.48111
  6 Pd   -0.00092   -0.00261   -0.48968
  7 Pd    0.00022    0.00491   -0.48111
  8 Pd    0.00397    0.00229   -0.48998
  9 Pd   -0.01505   -0.00869    0.52909
 10 Pd    0.02233    0.01987    0.50828
 11 Pd   -0.00151    0.04180    0.52624
 12 Pd    0.02837    0.00940    0.50828
 13 Pd    0.01241    0.00717    0.61989
 14 Pd   -0.03802   -0.00244    0.54853
 15 Pd    0.03544   -0.02221    0.52624
 16 Pd   -0.02112   -0.03171    0.54853
 17 Pd   -0.01032   -0.00596    0.45751
 18 Pd   -0.01154    0.00145    0.30009
 19 Pd    0.00167    0.00096    0.22570
 20 Pd   -0.01183    0.02126    0.31381
 21 Pd    0.00335    0.00446    0.26723
 22 Pd    0.01249   -0.02087    0.31381
 23 Pd   -0.01330   -0.00768    0.42140
 24 Pd   -0.00454   -0.00262    0.25031
 25 Pd   -0.00452   -0.01072    0.30009
 26 Pd    0.00554    0.00068    0.26723
 27 Pd   -0.02545   -0.01469   -0.15002
 28 Pd   -0.00737    0.00148   -0.15657
 29 Pd    0.01706   -0.02457   -0.17859
 30 Pd   -0.00240   -0.00712   -0.15657
 31 Pd   -0.05434   -0.03138   -0.27683
 32 Pd    0.22151   -0.34825   -0.59273
 33 Pd   -0.01275    0.02706   -0.17859
 34 Pd   -0.19083    0.36596   -0.59273
 35 Pd    0.02498    0.01442   -0.29587
 36 O    -0.01688   -0.00974    0.09065
 37 H     0.03817    0.02203   -0.45030

System changes: positions 

Initializing position-dependent things.

Density initialized from wave functions
                                           
                                           
                                           
                                           
                                           
                        O                  
                        H                  
                       Pd                  
                Pd            Pd           
            Pd   PPd    PPd    Pd          
       Pd     Pd    Pd                     
             Pd    Pd     Pd               
        Pd     Pd    Pd                    
                    Pd     Pd    Pd        
                Pd    Pd     Pd            
           Pd    Pd     Pd                 
                Pd     Pd     Pd           
            Pd    Pd     Pd                
       Pd     Pd    Pd                     
                                           
                                           
                                           
                                           

Atomic positions and initial magnetic moments

Positions:
   0 Pd     0.000000    0.000000   10.000000    ( 0.0000,  0.0000,  0.0000)
   1 Pd     2.715573    0.000000   10.000000    ( 0.0000,  0.0000,  0.0000)
   2 Pd     5.431146    0.000000   10.000000    ( 0.0000,  0.0000,  0.0000)
   3 Pd     1.357786    2.351755   10.000000    ( 0.0000,  0.0000,  0.0000)
   4 Pd     4.073359    2.351755   10.000000    ( 0.0000,  0.0000,  0.0000)
   5 Pd     6.788932    2.351755   10.000000    ( 0.0000,  0.0000,  0.0000)
   6 Pd     2.715573    4.703510   10.000000    ( 0.0000,  0.0000,  0.0000)
   7 Pd     5.431146    4.703510   10.000000    ( 0.0000,  0.0000,  0.0000)
   8 Pd     8.146719    4.703510   10.000000    ( 0.0000,  0.0000,  0.0000)
   9 Pd     1.357786    0.783918   12.217256    ( 0.0000,  0.0000,  0.0000)
  10 Pd     4.073359    0.783918   12.217256    ( 0.0000,  0.0000,  0.0000)
  11 Pd     6.788932    0.783918   12.217256    ( 0.0000,  0.0000,  0.0000)
  12 Pd     2.715573    3.135673   12.217256    ( 0.0000,  0.0000,  0.0000)
  13 Pd     5.431146    3.135673   12.217256    ( 0.0000,  0.0000,  0.0000)
  14 Pd     8.146719    3.135673   12.217256    ( 0.0000,  0.0000,  0.0000)
  15 Pd     4.073359    5.487429   12.217256    ( 0.0000,  0.0000,  0.0000)
  16 Pd     6.788932    5.487429   12.217256    ( 0.0000,  0.0000,  0.0000)
  17 Pd     9.504505    5.487429   12.217256    ( 0.0000,  0.0000,  0.0000)
  18 Pd    -0.007974    1.572610   14.508516    ( 0.0000,  0.0000,  0.0000)
  19 Pd     2.721051    1.570999   14.496150    ( 0.0000,  0.0000,  0.0000)
  20 Pd     5.435942    1.574158   14.513417    ( 0.0000,  0.0000,  0.0000)
  21 Pd     1.353700    3.921660   14.491459    ( 0.0000,  0.0000,  0.0000)
  22 Pd     4.081233    3.920584   14.513417    ( 0.0000,  0.0000,  0.0000)
  23 Pd     6.785199    3.917436   14.528407    ( 0.0000,  0.0000,  0.0000)
  24 Pd     2.716080    6.271639   14.481699    ( 0.0000,  0.0000,  0.0000)
  25 Pd     5.431293    6.262053   14.508516    ( 0.0000,  0.0000,  0.0000)
  26 Pd     8.146467    6.266773   14.491459    ( 0.0000,  0.0000,  0.0000)
  27 Pd    -0.000720   -0.000417   16.780066    ( 0.0000,  0.0000,  0.0000)
  28 Pd     2.715224   -0.001983   16.776419    ( 0.0000,  0.0000,  0.0000)
  29 Pd     5.430305   -0.001988   16.776032    ( 0.0000,  0.0000,  0.0000)
  30 Pd     1.355896    2.352443   16.776419    ( 0.0000,  0.0000,  0.0000)
  31 Pd     4.070925    2.350348   16.832012    ( 0.0000,  0.0000,  0.0000)
  32 Pd     6.798792    2.326842   16.923728    ( 0.0000,  0.0000,  0.0000)
  33 Pd     2.713432    4.703775   16.776032    ( 0.0000,  0.0000,  0.0000)
  34 Pd     5.414501    4.724504   16.923728    ( 0.0000,  0.0000,  0.0000)
  35 Pd     8.143548    4.701678   16.832634    ( 0.0000,  0.0000,  0.0000)
  36 O      6.109214    3.527156   19.391531    ( 0.0000,  0.0000,  0.0000)
  37 H      6.117593    3.531994   18.389388    ( 0.0000,  0.0000,  0.0000)

Unit cell:
           periodic     x           y           z      points  spacing
  1. axis:    yes    8.146719    0.000000    0.000000    36     0.1960
  2. axis:    yes    4.073359    7.055265    0.000000    36     0.1960
  3. axis:    no     0.000000    0.000000   26.651768   132     0.2019

  Lengths:   8.146719   8.146719  26.651768
  Angles:   90.000000  90.000000  60.000000

Effective grid spacing dv^(1/3) = 0.2077

     iter     time        total  log10-change:  magmom
                         energy   eigst   dens
iter:   1 04:29:25  -101.955504        c          +0.0000
iter:   2 04:37:16  -102.223710        c -2.82    +0.0000
iter:   3 04:44:58  -102.822416        c -2.39    +0.0000
iter:   4 04:55:57  -101.930850        c -2.13    +0.0000
iter:   5 05:08:31  -101.926043        c -3.28    +0.0000
iter:   6 05:17:38  -101.923823c       c -3.20    +0.0000
iter:   7 05:26:53  -101.922718c       c -3.31    +0.0000
iter:   8 05:38:50  -101.923169c       c -3.86    +0.0000
iter:   9 10:24:28  -101.923339c       c -3.96    +0.0000
iter:  10 10:36:33  -101.923301c       c -4.15c   +0.0000

Converged after 10 iterations.

Dipole moment: (-13.099935, -7.563140, -0.771721) |e|*Ang

Total magnetic moment: (0.000000, 0.000000, 0.000000)
Local magnetic moments:
   0 Pd ( 0.000000,  0.000000,  0.000000)
   1 Pd ( 0.000000,  0.000000,  0.000000)
   2 Pd ( 0.000000,  0.000000, -0.000000)
   3 Pd ( 0.000000,  0.000000,  0.000000)
   4 Pd ( 0.000000,  0.000000, -0.000000)
   5 Pd ( 0.000000,  0.000000, -0.000000)
   6 Pd ( 0.000000,  0.000000,  0.000000)
   7 Pd ( 0.000000,  0.000000,  0.000000)
   8 Pd ( 0.000000,  0.000000, -0.000000)
   9 Pd ( 0.000000,  0.000000,  0.000000)
  10 Pd ( 0.000000,  0.000000, -0.000000)
  11 Pd ( 0.000000,  0.000000, -0.000000)
  12 Pd ( 0.000000,  0.000000, -0.000000)
  13 Pd ( 0.000000,  0.000000, -0.000000)
  14 Pd ( 0.000000,  0.000000, -0.000000)
  15 Pd ( 0.000000,  0.000000,  0.000000)
  16 Pd ( 0.000000,  0.000000, -0.000000)
  17 Pd ( 0.000000,  0.000000, -0.000000)
  18 Pd ( 0.000000,  0.000000,  0.000000)
  19 Pd ( 0.000000,  0.000000,  0.000000)
  20 Pd ( 0.000000,  0.000000,  0.000000)
  21 Pd ( 0.000000,  0.000000,  0.000000)
  22 Pd ( 0.000000,  0.000000,  0.000000)
  23 Pd ( 0.000000,  0.000000,  0.000000)
  24 Pd ( 0.000000,  0.000000,  0.000000)
  25 Pd ( 0.000000,  0.000000,  0.000000)
  26 Pd ( 0.000000,  0.000000,  0.000000)
  27 Pd ( 0.000000,  0.000000,  0.000000)
  28 Pd ( 0.000000,  0.000000,  0.000000)
  29 Pd ( 0.000000,  0.000000,  0.000000)
  30 Pd ( 0.000000,  0.000000,  0.000000)
  31 Pd ( 0.000000,  0.000000,  0.000000)
  32 Pd ( 0.000000,  0.000000,  0.000000)
  33 Pd ( 0.000000,  0.000000,  0.000000)
  34 Pd ( 0.000000,  0.000000,  0.000000)
  35 Pd ( 0.000000,  0.000000,  0.000000)
  36 O  ( 0.000000,  0.000000,  0.000000)
  37 H  ( 0.000000,  0.000000,  0.000000)

Energy contributions relative to reference atoms: (reference = -4942243.008314)

Kinetic:       -1971.070250
Potential:     +1730.472981
External:        +0.000000
XC:            +136.821675
Entropy (-ST):   -2.324411
Local:           +3.014498
SIC:             +0.000000
--------------------------
Free energy:   -103.085506
Extrapolated:  -101.923301

Spin contamination: 0.000000 electrons
Showing only first 2 kpts
                      Up                     Down
 Kpt  Band  Eigenvalues  Occupancy  Eigenvalues  Occupancy
  0   289     -6.58846    0.94992     -6.58846    0.94992
  0   290     -6.58239    0.94695     -6.58239    0.94695
  0   291     -6.56973    0.94022     -6.56973    0.94022
  0   292     -6.52693    0.91113     -6.52693    0.91113

  1   289     -6.33923    0.61076     -6.33923    0.61076
  1   290     -6.26644    0.43110     -6.26644    0.43110
  1   291     -6.18314    0.24780     -6.18314    0.24780
  1   292     -6.17656    0.23573     -6.17656    0.23573


Fermi level: -6.29418

No gap
No difference between direct/indirect transitions
