
  ___ ___ ___ _ _ _  
 |   |   |_  | | | | 
 | | | | | . | | | | 
 |__ |  _|___|_____|  25.7.0
 |___|_|             

User:   qchem@IFEOLUWA
Date:   Wed Oct  1 22:53:43 2025
Arch:   x86_64
Pid:    20293
CWD:    /home/qchem/projects/gpaw_calculations
Python: 3.12.3
gpaw:   /home/qchem/gpaw-venv/lib/python3.12/site-packages/gpaw
_gpaw:  /home/qchem/gpaw-venv/lib/python3.12/site-packages/
        _gpaw.cpython-312-x86_64-linux-gnu.so
ase:    /home/qchem/gpaw-venv/lib/python3.12/site-packages/ase (version 3.26.0)
numpy:  /home/qchem/gpaw-venv/lib/python3.12/site-packages/numpy (version 2.3.3)
scipy:  /home/qchem/gpaw-venv/lib/python3.12/site-packages/scipy (version 1.16.2)
libxc:  5.2.3
units:  Angstrom and eV
cores: 1
OpenMP: False
OMP_NUM_THREADS: 1

Input parameters:
  basis: {H: szp,
          O: szp,
          Pd: sz}
  kpts: {density: 1.5,
         gamma: True}
  mode: {interpolation: 3,
         name: lcao}
  occupations: {name: fermi-dirac,
                width: 0.1}
  spinpol: True
  xc: PBE

System changes: positions, numbers, cell, pbc, initial_charges, initial_magmoms 

Initialize ...

Memory usage: 905.66 MiB
Date: Thu Oct  2 07:51:29 2025
