
  ___ ___ ___ _ _ _  
 |   |   |_  | | | | 
 | | | | | . | | | | 
 |__ |  _|___|_____|  25.7.0
 |___|_|             

User:   qchem@IFEOLUWA
Date:   Fri Oct  3 04:26:05 2025
Arch:   x86_64
Pid:    24257
CWD:    /home/qchem/projects/gpaw_calculations
Python: 3.12.3
gpaw:   /home/qchem/gpaw-venv/lib/python3.12/site-packages/gpaw
_gpaw:  /home/qchem/gpaw-venv/lib/python3.12/site-packages/
        _gpaw.cpython-312-x86_64-linux-gnu.so
ase:    /home/qchem/gpaw-venv/lib/python3.12/site-packages/ase (version 3.26.0)
numpy:  /home/qchem/gpaw-venv/lib/python3.12/site-packages/numpy (version 2.3.3)
scipy:  /home/qchem/gpaw-venv/lib/python3.12/site-packages/scipy (version 1.16.2)
libxc:  5.2.3
units:  Angstrom and eV
cores: 4
OpenMP: False
OMP_NUM_THREADS: 1

Input parameters:
  basis: dzp
  kpts: [2 2 1]
  mixer: {backend: pulay,
          beta: 0.05,
          method: separate,
          nmaxold: 5,
          weight: 50}
  mode: lcao
  occupations: {fixmagmom: False,
                name: fermi-dirac,
                width: 0.1}
  xc: PBE

System changes: positions, numbers, cell, pbc, initial_charges, initial_magmoms 

Initialize ...

species:
  Pd:
    name: Palladium
    id: c3f348c122b85aed3f99c4295cac773c
    Z: 46.0
    valence: 16
    core: 30
    charge: 0.0
    file: /home/qchem/gpaw-venv/lib/python3.12/site-packages/gpaw_data/setups/Pd.PBE.gz
    compensation charges: {type: gauss,
                           rc: 0.38,
                           lmax: 2}
    cutoffs: {filter: 2.38,
              core: 2.28}
    projectors:
      #              energy  rcut
      - 5s(0.00)    -3.315   1.228
      - 4p(6.00)   -51.209   1.360
      - 5p(0.00)    -0.314   1.360
      - 4d(10.00)    -4.047   1.228
      -  s          23.896   1.228
      -  d          23.165   1.228
  
    # LCAO basis set for Pd:
    #   Name: dzp
    #   File: /home/qchem/gpaw-venv/lib/python3.12/site-packages/gpaw_data/setups/Pd.dzp.basis.gz
    #   Number of radial functions: 9
    #   Number of spherical harmonics: 27
    #     l=0, rc=10.0312 Bohr: 5s-sz confined orbital
    #     l=1, rc=3.5312 Bohr: 4p-sz confined orbital
    #     l=1, rc=16.0000 Bohr: 5p-sz confined orbital
    #     l=2, rc=6.2031 Bohr: 4d-sz confined orbital
    #     l=0, rc=6.0156 Bohr: 5s-dz split-valence wave
    #     l=1, rc=2.4062 Bohr: 4p-dz split-valence wave
    #     l=1, rc=9.9375 Bohr: 5p-dz split-valence wave
    #     l=2, rc=3.6719 Bohr: 4d-dz split-valence wave
    #     l=1, rc=10.0312 Bohr: p-type Gaussian polarization
    #   Number of RI-basis functions 0

  O:
    name: Oxygen
    id: 32ecd46bf208036f09c70b0ec9a88b78
    Z: 8.0
    valence: 6
    core: 2
    charge: 0.0
    file: /home/qchem/gpaw-venv/lib/python3.12/site-packages/gpaw_data/setups/O.PBE.gz
    compensation charges: {type: gauss,
                           rc: 0.21,
                           lmax: 2}
    cutoffs: {filter: 1.17,
              core: 0.83}
    projectors:
      #              energy  rcut
      - 2s(2.00)   -23.961   0.688
      - 2p(4.00)    -9.029   0.598
      -  s           3.251   0.688
      -  p          18.182   0.598
      -  d           0.000   0.619
  
    # LCAO basis set for O:
    #   Name: dzp
    #   File: /home/qchem/gpaw-venv/lib/python3.12/site-packages/gpaw_data/setups/O.dzp.basis.gz
    #   Number of radial functions: 5
    #   Number of spherical harmonics: 13
    #     l=0, rc=4.3438 Bohr: 2s-sz confined orbital
    #     l=1, rc=5.3906 Bohr: 2p-sz confined orbital
    #     l=0, rc=2.2969 Bohr: 2s-dz split-valence wave
    #     l=1, rc=2.8906 Bohr: 2p-dz split-valence wave
    #     l=2, rc=5.3906 Bohr: d-type Gaussian polarization
    #   Number of RI-basis functions 0

  H:
    name: Hydrogen
    id: d65de229564ff8ea4db303e23b6d1ecf
    Z: 1.0
    valence: 1
    core: 0
    charge: 0.0
    file: /home/qchem/gpaw-venv/lib/python3.12/site-packages/gpaw_data/setups/H.PBE.gz
    compensation charges: {type: gauss,
                           rc: 0.15,
                           lmax: 2}
    cutoffs: {filter: 0.85,
              core: 0.53}
    projectors:
      #              energy  rcut
      - 1s(1.00)    -6.494   0.476
      -  s          20.717   0.476
      -  p           0.000   0.476
  
    # LCAO basis set for H:
    #   Name: dzp
    #   File: /home/qchem/gpaw-venv/lib/python3.12/site-packages/gpaw_data/setups/H.dzp.basis.gz
    #   Number of radial functions: 3
    #   Number of spherical harmonics: 5
    #     l=0, rc=6.4219 Bohr: 1s-sz confined orbital
    #     l=0, rc=3.6094 Bohr: 1s-dz split-valence wave
    #     l=1, rc=6.4219 Bohr: p-type Gaussian polarization
    #   Number of RI-basis functions 0

Reference energy: -4942243.008314  # eV

Spin-polarized calculation.
Initial magnetic moment: 1.000000

Convergence criteria:
 Maximum [total energy] change in last 3 cyles: 0.0005 eV / valence electron
 Maximum integral of absolute [dens]ity change: 0.0001 electrons / valence electron
 Maximum integral of absolute [eigenst]ate change: 4e-08 eV^2 / valence electron
 Maximum number of scf [iter]ations: 333
 (Square brackets indicate name in SCF output, whereas a 'c' in
 the SCF output indicates the quantity has converged.)

Symmetries present (total): 6

  ( 1  0  0)  ( 1 -1  0)  ( 0  1  0)  ( 0 -1  0)  (-1  1  0)  (-1  0  0)
  ( 0  1  0)  ( 0 -1  0)  ( 1  0  0)  ( 1 -1  0)  (-1  0  0)  (-1  1  0)
  ( 0  0  1)  ( 0  0  1)  ( 0  0  1)  ( 0  0  1)  ( 0  0  1)  ( 0  0  1)
Note: your k-points are not as symmetric as your crystal!

4 k-points: 2 x 2 x 1 Monkhorst-Pack grid
2 k-points in the irreducible part of the Brillouin zone
       k-points in crystal coordinates                weights
   0:     0.25000000   -0.25000000    0.00000000          2/4
   1:     0.25000000    0.25000000    0.00000000          2/4

Wave functions: LCAO
  Diagonalizer: Serial LAPACK
  Atomic Correction: dense with blas
  Data-type: complex
 

Occupation numbers: Fermi-Dirac:
  width: 0.1000  # eV
 

Eigensolver
   LCAO using direct dense diagonalizer 

Densities:
  Coarse grid: 36*36*132 grid
  Fine grid: 72*72*264 grid
  Total Charge: 0.000000 

Density mixing:
  Method: separate
  Backend: pulay
  Linear mixing parameter: 0.05
  old densities: 5
  Damping of long wavelength oscillations: 50 

Hamiltonian:
  XC and Coulomb potentials evaluated on a 72*72*264 grid
  Using the PBE Exchange-Correlation functional
  Interpolation: tri-quintic (5. degree polynomial)
  Poisson solver: FastPoissonSolver using
    Stencil: 8*3+1=25 point O(h^6) finite-difference Laplacian
    FFT axes: [np.int64(0), np.int64(1)]
    FST axes: [np.int64(2)]
 

XC parameters: PBE with 2 nearest neighbor stencil

Memory estimate:
  Process memory now: 203.74 MiB
  Calculator: 382.10 MiB
    Density: 127.10 MiB
      Arrays: 22.65 MiB
      Localized functions: 91.60 MiB
      Mixer: 12.85 MiB
    Hamiltonian: 23.59 MiB
      Arrays: 16.83 MiB
      XC: 0.00 MiB
      Poisson: 0.00 MiB
      vbar: 6.76 MiB
    Wavefunctions: 231.40 MiB
      C [qnM]: 5.36 MiB
      S, T [2 x qmm]: 29.91 MiB
      P [aqMi]: 0.31 MiB
      BasisFunctions: 195.81 MiB
      Eigensolver: 0.00 MiB

Total number of cores used: 4
Parallelization over k-points: 2
Domain decomposition: 1 x 1 x 2

Number of atoms: 38
Number of atomic orbitals: 990
Number of bands in calculation: 355
Number of valence electrons: 583
Bands to converge: occupied

... initialized

Initializing position-dependent things.

Density initialized from atomic densities
                                           
                                           
                                           
                                           
                                           
                                           
                Pd     Pd     Pd           
       O                                   
       H    Pd   PPd    PPd    Pd          
       Pd     Pd    Pd                     
             Pd    Pd     Pd               
        Pd     Pd   PPd    Pd     Pd       
                                           
                Pd    Pd     Pd            
           Pd    Pd     Pd                 
                Pd     Pd     Pd           
            Pd    Pd     Pd                
       Pd     Pd    Pd                     
                                           
                                           
                                           
                                           

Atomic positions and initial magnetic moments

Positions:
   0 Pd     0.000000    0.000000   10.000000    ( 0.0000,  0.0000,  0.0000)
   1 Pd     2.750645    0.000000   10.000000    ( 0.0000,  0.0000,  0.0000)
   2 Pd     5.501291    0.000000   10.000000    ( 0.0000,  0.0000,  0.0000)
   3 Pd     1.375323    2.382129   10.000000    ( 0.0000,  0.0000,  0.0000)
   4 Pd     4.125968    2.382129   10.000000    ( 0.0000,  0.0000,  0.0000)
   5 Pd     6.876613    2.382129   10.000000    ( 0.0000,  0.0000,  0.0000)
   6 Pd     2.750645    4.764258   10.000000    ( 0.0000,  0.0000,  0.0000)
   7 Pd     5.501291    4.764258   10.000000    ( 0.0000,  0.0000,  0.0000)
   8 Pd     8.251936    4.764258   10.000000    ( 0.0000,  0.0000,  0.0000)
   9 Pd     1.375323    0.794043   12.245893    ( 0.0000,  0.0000,  0.0000)
  10 Pd     4.125968    0.794043   12.245893    ( 0.0000,  0.0000,  0.0000)
  11 Pd     6.876613    0.794043   12.245893    ( 0.0000,  0.0000,  0.0000)
  12 Pd     2.750645    3.176172   12.245893    ( 0.0000,  0.0000,  0.0000)
  13 Pd     5.501291    3.176172   12.245893    ( 0.0000,  0.0000,  0.0000)
  14 Pd     8.251936    3.176172   12.245893    ( 0.0000,  0.0000,  0.0000)
  15 Pd     4.125968    5.558300   12.245893    ( 0.0000,  0.0000,  0.0000)
  16 Pd     6.876613    5.558300   12.245893    ( 0.0000,  0.0000,  0.0000)
  17 Pd     9.627259    5.558300   12.245893    ( 0.0000,  0.0000,  0.0000)
  18 Pd    -0.000000    1.588086   14.491785    ( 0.0000,  0.0000,  0.0000)
  19 Pd     2.750645    1.588086   14.491785    ( 0.0000,  0.0000,  0.0000)
  20 Pd     5.501291    1.588086   14.491785    ( 0.0000,  0.0000,  0.0000)
  21 Pd     1.375323    3.970215   14.491785    ( 0.0000,  0.0000,  0.0000)
  22 Pd     4.125968    3.970215   14.491785    ( 0.0000,  0.0000,  0.0000)
  23 Pd     6.876613    3.970215   14.491785    ( 0.0000,  0.0000,  0.0000)
  24 Pd     2.750645    6.352343   14.491785    ( 0.0000,  0.0000,  0.0000)
  25 Pd     5.501291    6.352343   14.491785    ( 0.0000,  0.0000,  0.0000)
  26 Pd     8.251936    6.352343   14.491785    ( 0.0000,  0.0000,  0.0000)
  27 Pd     0.000000    0.000000   16.737678    ( 0.0000,  0.0000,  0.0000)
  28 Pd     2.750645    0.000000   16.737678    ( 0.0000,  0.0000,  0.0000)
  29 Pd     5.501291    0.000000   16.737678    ( 0.0000,  0.0000,  0.0000)
  30 Pd     1.375323    2.382129   16.737678    ( 0.0000,  0.0000,  0.0000)
  31 Pd     4.125968    2.382129   16.737678    ( 0.0000,  0.0000,  0.0000)
  32 Pd     6.876613    2.382129   16.737678    ( 0.0000,  0.0000,  0.0000)
  33 Pd     2.750645    4.764258   16.737678    ( 0.0000,  0.0000,  0.0000)
  34 Pd     5.501291    4.764258   16.737678    ( 0.0000,  0.0000,  0.0000)
  35 Pd     8.251936    4.764258   16.737678    ( 0.0000,  0.0000,  0.0000)
  36 O      0.000000    0.000000   18.237678    ( 0.0000,  0.0000,  0.5000)
  37 H      0.000000    0.000000   17.258608    ( 0.0000,  0.0000,  0.5000)

Unit cell:
           periodic     x           y           z      points  spacing
  1. axis:    yes    8.251936    0.000000    0.000000    36     0.1985
  2. axis:    yes    4.125968    7.146386    0.000000    36     0.1985
  3. axis:    no     0.000000    0.000000   26.737678   132     0.2026

  Lengths:   8.251936   8.251936  26.737678
  Angles:   90.000000  90.000000  60.000000

Effective grid spacing dv^(1/3) = 0.2097

     iter     time        total  log10-change:  magmom
                         energy   eigst   dens
iter:   1 04:39:04  -119.716926        c          +1.0373
