
  ___ ___ ___ _ _ _  
 |   |   |_  | | | | 
 | | | | | . | | | | 
 |__ |  _|___|_____|  25.7.0
 |___|_|             

User:   qchem@IFEOLUWA
Date:   Sat Oct  4 09:38:38 2025
Arch:   x86_64
Pid:    30736
CWD:    /home/qchem/projects/gpaw_calculations
Python: 3.12.3
gpaw:   /home/qchem/gpaw-venv/lib/python3.12/site-packages/gpaw
_gpaw:  /home/qchem/gpaw-venv/lib/python3.12/site-packages/
        _gpaw.cpython-312-x86_64-linux-gnu.so
ase:    /home/qchem/gpaw-venv/lib/python3.12/site-packages/ase (version 3.26.0)
numpy:  /home/qchem/gpaw-venv/lib/python3.12/site-packages/numpy (version 2.3.3)
scipy:  /home/qchem/gpaw-venv/lib/python3.12/site-packages/scipy (version 1.16.2)
libxc:  5.2.3
units:  Angstrom and eV
cores: 4
OpenMP: False
OMP_NUM_THREADS: 1

Reading from pd_slab_opt.gpw
Read dipole, energy, forces, free_energy, magmom, magmoms
Reading input parameters:
  basis: {Pd: sz(dzp)}
  kpts: {density: 2.5,
         gamma: True}
  mode: {interpolation: 3,
         name: lcao}
  occupations: {name: fermi-dirac,
                width: 0.1}
  symmetry: {do_not_symmetrize_the_density: None,
             point_group: False,
             symmorphic: True,
             time_reversal: True,
             tolerance: 1e-07}
  xc: PBE

Initialize ...

species:
  Pd:
    name: Palladium
    id: c3f348c122b85aed3f99c4295cac773c
    Z: 46.0
    valence: 16
    core: 30
    charge: 0.0
    file: /home/qchem/gpaw-venv/lib/python3.12/site-packages/gpaw_data/setups/Pd.PBE.gz
    compensation charges: {type: gauss,
                           rc: 0.38,
                           lmax: 2}
    cutoffs: {filter: 2.38,
              core: 2.28}
    projectors:
      #              energy  rcut
      - 5s(0.00)    -3.315   1.228
      - 4p(6.00)   -51.209   1.360
      - 5p(0.00)    -0.314   1.360
      - 4d(10.00)    -4.047   1.228
      -  s          23.896   1.228
      -  d          23.165   1.228
  
    # LCAO basis set for Pd:
    #   Name: sz(dzp)
    #   File: /home/qchem/gpaw-venv/lib/python3.12/site-packages/gpaw_data/setups/Pd.dzp.basis.gz
    #   Number of radial functions: 4
    #   Number of spherical harmonics: 12
    #     l=0, rc=10.0312 Bohr: 5s-sz confined orbital
    #     l=1, rc=3.5312 Bohr: 4p-sz confined orbital
    #     l=1, rc=16.0000 Bohr: 5p-sz confined orbital
    #     l=2, rc=6.2031 Bohr: 4d-sz confined orbital
    #   Number of RI-basis functions 0

Reference energy: -4940189.665851  # eV

Spin-paired calculation

Convergence criteria:
 Maximum [total energy] change in last 3 cyles: 0.0005 eV / valence electron
 Maximum integral of absolute [dens]ity change: 0.0001 electrons / valence electron
 Maximum integral of absolute [eigenst]ate change: 4e-08 eV^2 / valence electron
 Maximum number of scf [iter]ations: 333
 (Square brackets indicate name in SCF output, whereas a 'c' in
 the SCF output indicates the quantity has converged.)

Symmetries present (total): 1

  ( 1  0  0)
  ( 0  1  0)
  ( 0  0  1)

9 k-points: 3 x 3 x 1 Monkhorst-Pack grid
5 k-points in the irreducible part of the Brillouin zone
       k-points in crystal coordinates                weights
   0:     0.00000000    0.00000000    0.00000000          1/9
   1:     0.00000000    0.33333333    0.00000000          2/9
   2:     0.33333333   -0.33333333    0.00000000          2/9
   3:     0.33333333    0.00000000    0.00000000          2/9
   4:     0.33333333    0.33333333    0.00000000          2/9

Wave functions: LCAO
  Diagonalizer: Serial LAPACK
  Atomic Correction: dense with blas
  Data-type: complex
 

Occupation numbers: Fermi-Dirac:
  width: 0.1000  # eV
 

Eigensolver
   LCAO using direct dense diagonalizer 

Densities:
  Coarse grid: 36*36*132 grid
  Fine grid: 72*72*264 grid
  Total Charge: 0.000000 

Density mixing:
  Method: separate
  Backend: pulay
  Linear mixing parameter: 0.05
  old densities: 5
  Damping of long wavelength oscillations: 50 

Hamiltonian:
  XC and Coulomb potentials evaluated on a 72*72*264 grid
  Using the PBE Exchange-Correlation functional
  Interpolation: tri-quintic (5. degree polynomial)
  Poisson solver: FastPoissonSolver using
    Stencil: 8*3+1=25 point O(h^6) finite-difference Laplacian
    FFT axes: [np.int64(0), np.int64(1)]
    FST axes: [np.int64(2)]
 

XC parameters: PBE with 2 nearest neighbor stencil

Memory estimate:
  Process memory now: 191.96 MiB
  Calculator: 290.50 MiB
    Density: 117.09 MiB
      Arrays: 16.83 MiB
      Localized functions: 93.84 MiB
      Mixer: 6.43 MiB
    Hamiltonian: 17.94 MiB
      Arrays: 11.01 MiB
      XC: 0.00 MiB
      Poisson: 0.00 MiB
      vbar: 6.93 MiB
    Wavefunctions: 155.47 MiB
      C [qnM]: 4.61 MiB
      S, T [2 x qmm]: 11.39 MiB
      P [aqMi]: 0.27 MiB
      BasisFunctions: 139.20 MiB
      Eigensolver: 0.00 MiB

Total number of cores used: 4
Parallelization over k-points: 2
Domain decomposition: 1 x 1 x 2

Number of atoms: 36
Number of atomic orbitals: 432
Number of bands in calculation: 350
Number of valence electrons: 576
Bands to converge: occupied

... initialized

Input parameters:
  basis: {H: szp(dzp),
          O: szp(dzp),
          Pd: sz(dzp)}
  mode: {interpolation: 3,
         name: lcao}
  spinpol: True
  symmetry: {point_group: False}

System changes: numbers, positions 

Initialize ...

species:
  Pd:
    name: Palladium
    id: c3f348c122b85aed3f99c4295cac773c
    Z: 46.0
    valence: 16
    core: 30
    charge: 0.0
    file: /home/qchem/gpaw-venv/lib/python3.12/site-packages/gpaw_data/setups/Pd.PBE.gz
    compensation charges: {type: gauss,
                           rc: 0.38,
                           lmax: 2}
    cutoffs: {filter: 2.38,
              core: 2.28}
    projectors:
      #              energy  rcut
      - 5s(0.00)    -3.315   1.228
      - 4p(6.00)   -51.209   1.360
      - 5p(0.00)    -0.314   1.360
      - 4d(10.00)    -4.047   1.228
      -  s          23.896   1.228
      -  d          23.165   1.228
  
    # LCAO basis set for Pd:
    #   Name: sz(dzp)
    #   File: /home/qchem/gpaw-venv/lib/python3.12/site-packages/gpaw_data/setups/Pd.dzp.basis.gz
    #   Number of radial functions: 4
    #   Number of spherical harmonics: 12
    #     l=0, rc=10.0312 Bohr: 5s-sz confined orbital
    #     l=1, rc=3.5312 Bohr: 4p-sz confined orbital
    #     l=1, rc=16.0000 Bohr: 5p-sz confined orbital
    #     l=2, rc=6.2031 Bohr: 4d-sz confined orbital
    #   Number of RI-basis functions 0

  O:
    name: Oxygen
    id: 32ecd46bf208036f09c70b0ec9a88b78
    Z: 8.0
    valence: 6
    core: 2
    charge: 0.0
    file: /home/qchem/gpaw-venv/lib/python3.12/site-packages/gpaw_data/setups/O.PBE.gz
    compensation charges: {type: gauss,
                           rc: 0.21,
                           lmax: 2}
    cutoffs: {filter: 1.17,
              core: 0.83}
    projectors:
      #              energy  rcut
      - 2s(2.00)   -23.961   0.688
      - 2p(4.00)    -9.029   0.598
      -  s           3.251   0.688
      -  p          18.182   0.598
      -  d           0.000   0.619
  
    # LCAO basis set for O:
    #   Name: szp(dzp)
    #   File: /home/qchem/gpaw-venv/lib/python3.12/site-packages/gpaw_data/setups/O.dzp.basis.gz
    #   Number of radial functions: 3
    #   Number of spherical harmonics: 9
    #     l=0, rc=4.3438 Bohr: 2s-sz confined orbital
    #     l=1, rc=5.3906 Bohr: 2p-sz confined orbital
    #     l=2, rc=5.3906 Bohr: d-type Gaussian polarization
    #   Number of RI-basis functions 0

  H:
    name: Hydrogen
    id: d65de229564ff8ea4db303e23b6d1ecf
    Z: 1.0
    valence: 1
    core: 0
    charge: 0.0
    file: /home/qchem/gpaw-venv/lib/python3.12/site-packages/gpaw_data/setups/H.PBE.gz
    compensation charges: {type: gauss,
                           rc: 0.15,
                           lmax: 2}
    cutoffs: {filter: 0.85,
              core: 0.53}
    projectors:
      #              energy  rcut
      - 1s(1.00)    -6.494   0.476
      -  s          20.717   0.476
      -  p           0.000   0.476
  
    # LCAO basis set for H:
    #   Name: szp(dzp)
    #   File: /home/qchem/gpaw-venv/lib/python3.12/site-packages/gpaw_data/setups/H.dzp.basis.gz
    #   Number of radial functions: 2
    #   Number of spherical harmonics: 4
    #     l=0, rc=6.4219 Bohr: 1s-sz confined orbital
    #     l=1, rc=6.4219 Bohr: p-type Gaussian polarization
    #   Number of RI-basis functions 0

Reference energy: -4942243.008314  # eV

Spin-polarized calculation.
Initial magnetic moment: 0.000000

Convergence criteria:
 Maximum [total energy] change in last 3 cyles: 0.0005 eV / valence electron
 Maximum integral of absolute [dens]ity change: 0.0001 electrons / valence electron
 Maximum integral of absolute [eigenst]ate change: 4e-08 eV^2 / valence electron
 Maximum number of scf [iter]ations: 333
 (Square brackets indicate name in SCF output, whereas a 'c' in
 the SCF output indicates the quantity has converged.)

Symmetries present (total): 1

  ( 1  0  0)
  ( 0  1  0)
  ( 0  0  1)

9 k-points: 3 x 3 x 1 Monkhorst-Pack grid
5 k-points in the irreducible part of the Brillouin zone
       k-points in crystal coordinates                weights
   0:     0.00000000    0.00000000    0.00000000          1/9
   1:     0.00000000    0.33333333    0.00000000          2/9
   2:     0.33333333   -0.33333333    0.00000000          2/9
   3:     0.33333333    0.00000000    0.00000000          2/9
   4:     0.33333333    0.33333333    0.00000000          2/9

Wave functions: LCAO
  Diagonalizer: Serial LAPACK
  Atomic Correction: dense with blas
  Data-type: complex
 

Occupation numbers: Fermi-Dirac:
  width: 0.1000  # eV
 

Eigensolver
   LCAO using direct dense diagonalizer 

Densities:
  Coarse grid: 36*36*132 grid
  Fine grid: 72*72*264 grid
  Total Charge: 0.000000 

Density mixing:
  Method: difference
  Backend: pulay
  Linear mixing parameter: 0.05
  old densities: 5
  Damping of long wavelength oscillations: 50 

Hamiltonian:
  XC and Coulomb potentials evaluated on a 72*72*264 grid
  Using the PBE Exchange-Correlation functional
  Interpolation: tri-quintic (5. degree polynomial)
  Poisson solver: FastPoissonSolver using
    Stencil: 8*3+1=25 point O(h^6) finite-difference Laplacian
    FFT axes: [np.int64(0), np.int64(1)]
    FST axes: [np.int64(2)]
 

XC parameters: PBE with 2 nearest neighbor stencil

Memory estimate:
  Process memory now: 218.16 MiB
  Calculator: 306.74 MiB
    Density: 125.93 MiB
      Arrays: 22.65 MiB
      Localized functions: 94.28 MiB
      Mixer: 9.00 MiB
    Hamiltonian: 23.79 MiB
      Arrays: 16.83 MiB
      XC: 0.00 MiB
      Poisson: 0.00 MiB
      vbar: 6.96 MiB
    Wavefunctions: 157.01 MiB
      C [qnM]: 4.81 MiB
      S, T [2 x qmm]: 12.09 MiB
      P [aqMi]: 0.28 MiB
      BasisFunctions: 139.84 MiB
      Eigensolver: 0.00 MiB

Total number of cores used: 4
Parallelization over k-points: 2
Domain decomposition: 1 x 1 x 2

Number of atoms: 38
Number of atomic orbitals: 445
Number of bands in calculation: 354
Number of valence electrons: 583
Bands to converge: occupied

... initialized

Initializing position-dependent things.

Density initialized from atomic densities
                                           
                                           
                                           
                                           
                                           
                        O                  
                                           
                Pd     PH     Pd           
            Pd    Pd     Pd                
                 Pd     Pd     Pd          
       Pd    PPd   PPd    Pd               
                                           
        Pd     Pd   PPd    Pd    Pd        
                                           
                Pd    Pd     Pd            
           Pd    Pd     Pd                 
                Pd     Pd     Pd           
            Pd    Pd     Pd                
       Pd     Pd    Pd                     
                                           
                                           
                                           
                                           

Atomic positions and initial magnetic moments

Positions:
   0 Pd     0.000000    0.000000   10.000000    ( 0.0000,  0.0000,  0.0000)
   1 Pd     2.715573    0.000000   10.000000    ( 0.0000,  0.0000,  0.0000)
   2 Pd     5.431146    0.000000   10.000000    ( 0.0000,  0.0000,  0.0000)
   3 Pd     1.357786    2.351755   10.000000    ( 0.0000,  0.0000,  0.0000)
   4 Pd     4.073359    2.351755   10.000000    ( 0.0000,  0.0000,  0.0000)
   5 Pd     6.788932    2.351755   10.000000    ( 0.0000,  0.0000,  0.0000)
   6 Pd     2.715573    4.703510   10.000000    ( 0.0000,  0.0000,  0.0000)
   7 Pd     5.431146    4.703510   10.000000    ( 0.0000,  0.0000,  0.0000)
   8 Pd     8.146719    4.703510   10.000000    ( 0.0000,  0.0000,  0.0000)
   9 Pd     1.357786    0.783918   12.217256    ( 0.0000,  0.0000,  0.0000)
  10 Pd     4.073359    0.783918   12.217256    ( 0.0000,  0.0000,  0.0000)
  11 Pd     6.788932    0.783918   12.217256    ( 0.0000,  0.0000,  0.0000)
  12 Pd     2.715573    3.135673   12.217256    ( 0.0000,  0.0000,  0.0000)
  13 Pd     5.431146    3.135673   12.217256    ( 0.0000,  0.0000,  0.0000)
  14 Pd     8.146719    3.135673   12.217256    ( 0.0000,  0.0000,  0.0000)
  15 Pd     4.073359    5.487429   12.217256    ( 0.0000,  0.0000,  0.0000)
  16 Pd     6.788932    5.487429   12.217256    ( 0.0000,  0.0000,  0.0000)
  17 Pd     9.504505    5.487429   12.217256    ( 0.0000,  0.0000,  0.0000)
  18 Pd    -0.000024    1.567822   14.485066    ( 0.0000,  0.0000,  0.0000)
  19 Pd     2.715549    1.567822   14.485066    ( 0.0000,  0.0000,  0.0000)
  20 Pd     5.431122    1.567822   14.485066    ( 0.0000,  0.0000,  0.0000)
  21 Pd     1.357762    3.919577   14.485066    ( 0.0000,  0.0000,  0.0000)
  22 Pd     4.073335    3.919577   14.485066    ( 0.0000,  0.0000,  0.0000)
  23 Pd     6.788908    3.919577   14.485066    ( 0.0000,  0.0000,  0.0000)
  24 Pd     2.715549    6.271332   14.485066    ( 0.0000,  0.0000,  0.0000)
  25 Pd     5.431122    6.271332   14.485066    ( 0.0000,  0.0000,  0.0000)
  26 Pd     8.146694    6.271332   14.485066    ( 0.0000,  0.0000,  0.0000)
  27 Pd    -0.000054   -0.000031   16.769244    ( 0.0000,  0.0000,  0.0000)
  28 Pd     2.715519   -0.000031   16.769244    ( 0.0000,  0.0000,  0.0000)
  29 Pd     5.431092   -0.000031   16.769244    ( 0.0000,  0.0000,  0.0000)
  30 Pd     1.357733    2.351724   16.769244    ( 0.0000,  0.0000,  0.0000)
  31 Pd     4.073306    2.351724   16.769244    ( 0.0000,  0.0000,  0.0000)
  32 Pd     6.788879    2.351724   16.769244    ( 0.0000,  0.0000,  0.0000)
  33 Pd     2.715519    4.703479   16.769244    ( 0.0000,  0.0000,  0.0000)
  34 Pd     5.431092    4.703479   16.769244    ( 0.0000,  0.0000,  0.0000)
  35 Pd     8.146665    4.703479   16.769244    ( 0.0000,  0.0000,  0.0000)
  36 O      6.110039    3.527633   18.769244    ( 0.0000,  0.0000,  0.0000)
  37 H      6.110039    3.527633   17.769244    ( 0.0000,  0.0000,  0.0000)

Unit cell:
           periodic     x           y           z      points  spacing
  1. axis:    yes    8.146719    0.000000    0.000000    36     0.1960
  2. axis:    yes    4.073359    7.055265    0.000000    36     0.1960
  3. axis:    no     0.000000    0.000000   26.651768   132     0.2019

  Lengths:   8.146719   8.146719  26.651768
  Angles:   90.000000  90.000000  60.000000

Effective grid spacing dv^(1/3) = 0.2077

     iter     time        total  log10-change:  magmom
                         energy   eigst   dens
iter:   1 09:42:19  -180.149886        c          +0.0000
iter:   2 09:49:25  -265.197532        c -1.12    -0.0000
iter:   3 09:55:40  -156.319100        c -1.02    -0.0000
iter:   4 10:03:07  -167.014020        c -1.20    -0.0000
iter:   5 10:08:47  -142.787380        c -1.18    -0.0000
iter:   6 10:15:16  -133.087225        c -1.30    -0.0000
iter:   7 10:21:32  -108.442544        c -1.36    -0.0000
iter:   8 10:28:52  -107.220563        c -1.70    -0.0000
iter:   9 10:35:57  -104.904339        c -1.81    -0.0000
iter:  10 10:41:35  -103.655869        c -1.96    -0.0000
iter:  11 10:48:13  -103.804775        c -2.14    -0.0000
iter:  12 10:54:18  -103.175455        c -2.11    +0.0000
iter:  13 11:00:52  -103.002577        c -2.24    +0.0000
iter:  14 11:07:44  -102.574061        c -2.28    +0.0000
iter:  15 11:14:13  -102.564617        c -2.53    -0.0000
iter:  16 11:20:33  -102.419870c       c -2.56    +0.0000
iter:  17 11:26:56  -102.398590c       c -2.74    +0.0000
iter:  18 11:33:16  -102.409342c       c -2.80    +0.0000
iter:  19 11:40:22  -102.391143c       c -2.77    -0.0000
iter:  20 11:47:52  -102.401389c       c -2.81    -0.0000
iter:  21 11:54:00  -102.390337c       c -2.83    -0.0000
iter:  22 12:01:30  -102.374140c       c -2.92    +0.0000
iter:  23 12:08:13  -102.368981c       c -3.12    +0.0000
iter:  24 12:14:35  -102.366652c       c -3.34    +0.0000
iter:  25 12:21:05  -102.366074c       c -4.07c   -0.0000

Converged after 25 iterations.

Dipole moment: (-13.113420, -7.571001, -0.538504) |e|*Ang

Total magnetic moment: (0.000000, 0.000000, -0.000000)
Local magnetic moments:
   0 Pd ( 0.000000,  0.000000, -0.000000)
   1 Pd ( 0.000000,  0.000000,  0.000000)
   2 Pd ( 0.000000,  0.000000,  0.000000)
   3 Pd ( 0.000000,  0.000000,  0.000000)
   4 Pd ( 0.000000,  0.000000, -0.000000)
   5 Pd ( 0.000000,  0.000000,  0.000000)
   6 Pd ( 0.000000,  0.000000, -0.000000)
   7 Pd ( 0.000000,  0.000000,  0.000000)
   8 Pd ( 0.000000,  0.000000, -0.000000)
   9 Pd ( 0.000000,  0.000000,  0.000000)
  10 Pd ( 0.000000,  0.000000, -0.000000)
  11 Pd ( 0.000000,  0.000000, -0.000000)
  12 Pd ( 0.000000,  0.000000,  0.000000)
  13 Pd ( 0.000000,  0.000000, -0.000000)
  14 Pd ( 0.000000,  0.000000,  0.000000)
  15 Pd ( 0.000000,  0.000000,  0.000000)
  16 Pd ( 0.000000,  0.000000, -0.000000)
  17 Pd ( 0.000000,  0.000000,  0.000000)
  18 Pd ( 0.000000,  0.000000,  0.000000)
  19 Pd ( 0.000000,  0.000000, -0.000000)
  20 Pd ( 0.000000,  0.000000, -0.000000)
  21 Pd ( 0.000000,  0.000000,  0.000000)
  22 Pd ( 0.000000,  0.000000, -0.000000)
  23 Pd ( 0.000000,  0.000000, -0.000000)
  24 Pd ( 0.000000,  0.000000, -0.000000)
  25 Pd ( 0.000000,  0.000000, -0.000000)
  26 Pd ( 0.000000,  0.000000, -0.000000)
  27 Pd ( 0.000000,  0.000000, -0.000000)
  28 Pd ( 0.000000,  0.000000,  0.000000)
  29 Pd ( 0.000000,  0.000000, -0.000000)
  30 Pd ( 0.000000,  0.000000, -0.000000)
  31 Pd ( 0.000000,  0.000000, -0.000000)
  32 Pd ( 0.000000,  0.000000,  0.000000)
  33 Pd ( 0.000000,  0.000000, -0.000000)
  34 Pd ( 0.000000,  0.000000, -0.000000)
  35 Pd ( 0.000000,  0.000000,  0.000000)
  36 O  ( 0.000000,  0.000000,  0.000000)
  37 H  ( 0.000000,  0.000000, -0.000000)

Energy contributions relative to reference atoms: (reference = -4942243.008314)

Kinetic:       -1936.082899
Potential:     +1700.736860
External:        +0.000000
XC:            +131.307707
Entropy (-ST):   -2.504075
Local:           +2.924295
SIC:             +0.000000
--------------------------
Free energy:   -103.618112
Extrapolated:  -102.366074

Spin contamination: 0.000000 electrons
Showing only first 2 kpts
                      Up                     Down
 Kpt  Band  Eigenvalues  Occupancy  Eigenvalues  Occupancy
  0   289     -6.46152    0.94026     -6.46152    0.94026
  0   290     -6.45953    0.93913     -6.45953    0.93913
  0   291     -6.45030    0.93363     -6.45030    0.93363
  0   292     -6.41471    0.90788     -6.41471    0.90788

  1   289     -6.27140    0.70159     -6.27140    0.70159
  1   290     -6.24936    0.65350     -6.24936    0.65350
  1   291     -6.17033    0.46111     -6.17033    0.46111
  1   292     -6.14377    0.39617     -6.14377    0.39617


Fermi level: -6.18591

No gap
No difference between direct/indirect transitions

Forces in eV/Ang:
  0 Pd   -0.01234   -0.00712   -0.47645
  1 Pd    0.01077   -0.00904   -0.49081
  2 Pd    0.00735   -0.01118   -0.48454
  3 Pd   -0.00244    0.01385   -0.49081
  4 Pd    0.00633    0.00365   -0.47827
  5 Pd   -0.00673    0.00383   -0.48545
  6 Pd   -0.00600    0.01196   -0.48454
  7 Pd   -0.00005   -0.00774   -0.48545
  8 Pd    0.00734    0.00424   -0.48872
  9 Pd    0.00238    0.00137    0.48086
 10 Pd   -0.01109    0.00265    0.49653
 11 Pd    0.00273    0.00699    0.52315
 12 Pd   -0.00326   -0.01093    0.49653
 13 Pd    0.00587    0.00339    0.53360
 14 Pd   -0.00156   -0.00253    0.51187
 15 Pd    0.00742   -0.00113    0.52315
 16 Pd   -0.00297   -0.00008    0.51187
 17 Pd   -0.00503   -0.00290    0.51571
 18 Pd   -0.05362   -0.00010    0.07068
 19 Pd    0.02308    0.01332   -0.00962
 20 Pd    0.00530   -0.03086   -0.06545
 21 Pd    0.00134    0.01684   -0.03733
 22 Pd   -0.02407    0.02002   -0.06545
 23 Pd    0.01929    0.01113   -0.15216
 24 Pd   -0.00856   -0.00494   -0.04563
 25 Pd   -0.02690   -0.04638    0.07068
 26 Pd    0.01525   -0.00726   -0.03733
 27 Pd    0.01760    0.01016    0.02860
 28 Pd    0.00229    0.07919    0.01674
 29 Pd   -0.01064   -0.06374    0.01648
 30 Pd    0.06972   -0.03761    0.01674
 31 Pd   -0.21575   -0.12457    0.12431
 32 Pd    1.14302   -1.89313   -1.05479
 33 Pd   -0.06052    0.02265    0.01648
 34 Pd   -1.06799    1.93646   -1.05479
 35 Pd    0.16480    0.09515    0.12279
 36 O    -0.02731   -0.01576    2.54371
 37 H     0.03700    0.02135   -0.62971

System changes: positions 

Initializing position-dependent things.

Density initialized from wave functions
                                           
                                           
                                           
                                           
                                           
                        O                  
                                           
                Pd     PH     Pd           
                                           
            Pd   PPd    PPd    Pd          
       Pd     Pd    Pd                     
             Pd    Pd     Pd               
        Pd     Pd   PPd    Pd    Pd        
                                           
                Pd    Pd     Pd            
           Pd    Pd     Pd                 
                Pd     Pd     Pd           
            Pd    Pd     Pd                
       Pd     Pd    Pd                     
                                           
                                           
                                           
                                           

Atomic positions and initial magnetic moments

Positions:
   0 Pd     0.000000    0.000000   10.000000    ( 0.0000,  0.0000,  0.0000)
   1 Pd     2.715573    0.000000   10.000000    ( 0.0000,  0.0000,  0.0000)
   2 Pd     5.431146    0.000000   10.000000    ( 0.0000,  0.0000,  0.0000)
   3 Pd     1.357786    2.351755   10.000000    ( 0.0000,  0.0000,  0.0000)
   4 Pd     4.073359    2.351755   10.000000    ( 0.0000,  0.0000,  0.0000)
   5 Pd     6.788932    2.351755   10.000000    ( 0.0000,  0.0000,  0.0000)
   6 Pd     2.715573    4.703510   10.000000    ( 0.0000,  0.0000,  0.0000)
   7 Pd     5.431146    4.703510   10.000000    ( 0.0000,  0.0000,  0.0000)
   8 Pd     8.146719    4.703510   10.000000    ( 0.0000,  0.0000,  0.0000)
   9 Pd     1.357786    0.783918   12.217256    ( 0.0000,  0.0000,  0.0000)
  10 Pd     4.073359    0.783918   12.217256    ( 0.0000,  0.0000,  0.0000)
  11 Pd     6.788932    0.783918   12.217256    ( 0.0000,  0.0000,  0.0000)
  12 Pd     2.715573    3.135673   12.217256    ( 0.0000,  0.0000,  0.0000)
  13 Pd     5.431146    3.135673   12.217256    ( 0.0000,  0.0000,  0.0000)
  14 Pd     8.146719    3.135673   12.217256    ( 0.0000,  0.0000,  0.0000)
  15 Pd     4.073359    5.487429   12.217256    ( 0.0000,  0.0000,  0.0000)
  16 Pd     6.788932    5.487429   12.217256    ( 0.0000,  0.0000,  0.0000)
  17 Pd     9.504505    5.487429   12.217256    ( 0.0000,  0.0000,  0.0000)
  18 Pd    -0.004239    1.567814   14.490623    ( 0.0000,  0.0000,  0.0000)
  19 Pd     2.717363    1.568870   14.484310    ( 0.0000,  0.0000,  0.0000)
  20 Pd     5.431539    1.565396   14.479921    ( 0.0000,  0.0000,  0.0000)
  21 Pd     1.357868    3.920901   14.482132    ( 0.0000,  0.0000,  0.0000)
  22 Pd     4.071442    3.921152   14.479921    ( 0.0000,  0.0000,  0.0000)
  23 Pd     6.790424    3.920453   14.473103    ( 0.0000,  0.0000,  0.0000)
  24 Pd     2.714876    6.270944   14.481479    ( 0.0000,  0.0000,  0.0000)
  25 Pd     5.429007    6.267686   14.490623    ( 0.0000,  0.0000,  0.0000)
  26 Pd     8.147894    6.270762   14.482132    ( 0.0000,  0.0000,  0.0000)
  27 Pd     0.001330    0.000767   16.771493    ( 0.0000,  0.0000,  0.0000)
  28 Pd     2.715699    0.006194   16.770561    ( 0.0000,  0.0000,  0.0000)
  29 Pd     5.430255   -0.005042   16.770540    ( 0.0000,  0.0000,  0.0000)
  30 Pd     1.363214    2.348767   16.770560    ( 0.0000,  0.0000,  0.0000)
  31 Pd     4.056343    2.341930   16.779018    ( 0.0000,  0.0000,  0.0000)
  32 Pd     6.878742    2.202887   16.686317    ( 0.0000,  0.0000,  0.0000)
  33 Pd     2.710761    4.705259   16.770540    ( 0.0000,  0.0000,  0.0000)
  34 Pd     5.347128    4.855722   16.686317    ( 0.0000,  0.0000,  0.0000)
  35 Pd     8.159622    4.710959   16.778898    ( 0.0000,  0.0000,  0.0000)
  36 O      6.107892    3.526393   18.969229    ( 0.0000,  0.0000,  0.0000)
  37 H      6.112948    3.529311   17.719737    ( 0.0000,  0.0000,  0.0000)

Unit cell:
           periodic     x           y           z      points  spacing
  1. axis:    yes    8.146719    0.000000    0.000000    36     0.1960
  2. axis:    yes    4.073359    7.055265    0.000000    36     0.1960
  3. axis:    no     0.000000    0.000000   26.651768   132     0.2019

  Lengths:   8.146719   8.146719  26.651768
  Angles:   90.000000  90.000000  60.000000

Effective grid spacing dv^(1/3) = 0.2077

     iter     time        total  log10-change:  magmom
                         energy   eigst   dens
iter:   1 12:44:15  -103.439635        c          -0.0000
iter:   2 12:50:27  -112.610175        c -2.22    +0.0000
iter:   3 12:56:23  -103.197282        c -1.76    +0.0000
iter:   4 13:02:34  -103.419995        c -2.18    -0.0000
iter:   5 13:09:29  -102.350682        c -2.13    -0.0000
iter:   6 13:15:44  -102.301817        c -2.52    -0.0000
iter:   7 13:22:24  -102.376829c       c -2.57    +0.0000
iter:   8 13:28:29  -102.186720c       c -2.44    +0.0000
iter:   9 13:34:15  -102.128325c       c -2.81    +0.0000
iter:  10 13:40:43  -102.127392c       c -3.24    +0.0000
iter:  11 13:46:02  -102.126016c       c -3.26    +0.0000
iter:  12 13:51:59  -102.130697c       c -3.33    +0.0000
iter:  13 13:57:36  -102.129965c       c -3.21    +0.0000
iter:  14 14:03:28  -102.122670c       c -3.14    +0.0000
iter:  15 14:10:29  -102.121385c       c -3.75    +0.0000
iter:  16 14:17:04  -102.121296c       c -3.77    +0.0000
iter:  17 14:23:00  -102.121574c       c -3.98    +0.0000
iter:  18 14:29:54  -102.121476c       c -3.92    +0.0000
iter:  19 16:34:56  -102.120356c       c -3.78    +0.0000
iter:  20 16:43:05  -102.120381c       c -4.13c   +0.0000

Converged after 20 iterations.

Dipole moment: (-13.337225, -7.700205, -0.580538) |e|*Ang

Total magnetic moment: (0.000000, 0.000000, 0.000000)
Local magnetic moments:
   0 Pd ( 0.000000,  0.000000, -0.000000)
   1 Pd ( 0.000000,  0.000000, -0.000000)
   2 Pd ( 0.000000,  0.000000, -0.000000)
   3 Pd ( 0.000000,  0.000000,  0.000000)
   4 Pd ( 0.000000,  0.000000,  0.000000)
   5 Pd ( 0.000000,  0.000000, -0.000000)
   6 Pd ( 0.000000,  0.000000, -0.000000)
   7 Pd ( 0.000000,  0.000000, -0.000000)
   8 Pd ( 0.000000,  0.000000, -0.000000)
   9 Pd ( 0.000000,  0.000000, -0.000000)
  10 Pd ( 0.000000,  0.000000, -0.000000)
  11 Pd ( 0.000000,  0.000000,  0.000000)
  12 Pd ( 0.000000,  0.000000, -0.000000)
  13 Pd ( 0.000000,  0.000000,  0.000000)
  14 Pd ( 0.000000,  0.000000, -0.000000)
  15 Pd ( 0.000000,  0.000000, -0.000000)
  16 Pd ( 0.000000,  0.000000, -0.000000)
  17 Pd ( 0.000000,  0.000000,  0.000000)
  18 Pd ( 0.000000,  0.000000,  0.000000)
  19 Pd ( 0.000000,  0.000000,  0.000000)
  20 Pd ( 0.000000,  0.000000,  0.000000)
  21 Pd ( 0.000000,  0.000000,  0.000000)
  22 Pd ( 0.000000,  0.000000,  0.000000)
  23 Pd ( 0.000000,  0.000000, -0.000000)
  24 Pd ( 0.000000,  0.000000,  0.000000)
  25 Pd ( 0.000000,  0.000000,  0.000000)
  26 Pd ( 0.000000,  0.000000,  0.000000)
  27 Pd ( 0.000000,  0.000000,  0.000000)
  28 Pd ( 0.000000,  0.000000,  0.000000)
  29 Pd ( 0.000000,  0.000000,  0.000000)
  30 Pd ( 0.000000,  0.000000,  0.000000)
  31 Pd ( 0.000000,  0.000000,  0.000000)
  32 Pd ( 0.000000,  0.000000,  0.000000)
  33 Pd ( 0.000000,  0.000000,  0.000000)
  34 Pd ( 0.000000,  0.000000,  0.000000)
  35 Pd ( 0.000000,  0.000000,  0.000000)
  36 O  ( 0.000000,  0.000000,  0.000000)
  37 H  ( 0.000000,  0.000000, -0.000000)

Energy contributions relative to reference atoms: (reference = -4942243.008314)

Kinetic:       -1926.466916
Potential:     +1689.964905
External:        +0.000000
XC:            +132.783918
Entropy (-ST):   -2.530938
Local:           +2.863181
SIC:             +0.000000
--------------------------
Free energy:   -103.385851
Extrapolated:  -102.120381

Spin contamination: 0.000000 electrons
Showing only first 2 kpts
                      Up                     Down
 Kpt  Band  Eigenvalues  Occupancy  Eigenvalues  Occupancy
  0   289     -6.50786    0.93731     -6.50786    0.93731
  0   290     -6.49283    0.92787     -6.49283    0.92787
  0   291     -6.47675    0.91634     -6.47675    0.91634
  0   292     -6.47064    0.91153     -6.47064    0.91153

  1   289     -6.31043    0.67491     -6.31043    0.67491
  1   290     -6.30370    0.65996     -6.30370    0.65996
  1   291     -6.23128    0.48474     -6.23128    0.48474
  1   292     -6.19555    0.39692     -6.19555    0.39692


Fermi level: -6.23739

No gap
No difference between direct/indirect transitions

Forces in eV/Ang:
  0 Pd   -0.01650   -0.00952   -0.47673
  1 Pd    0.01274   -0.01305   -0.48183
  2 Pd    0.00877   -0.01936   -0.49041
  3 Pd   -0.00493    0.01756   -0.48183
  4 Pd    0.01104    0.00637   -0.47891
  5 Pd   -0.00634    0.00728   -0.48569
  6 Pd   -0.01238    0.01728   -0.49041
  7 Pd    0.00313   -0.00912   -0.48569
  8 Pd    0.01079    0.00623   -0.50085
  9 Pd   -0.01518   -0.00877    0.56060
 10 Pd   -0.01202    0.00774    0.47831
 11 Pd    0.01576    0.00922    0.47458
 12 Pd    0.00070   -0.01428    0.47831
 13 Pd   -0.00446   -0.00257    0.48093
 14 Pd    0.01230   -0.01955    0.47210
 15 Pd    0.01587    0.00904    0.47458
 16 Pd   -0.01078    0.02042    0.47210
 17 Pd   -0.00857   -0.00495    0.47629
 18 Pd    0.30955   -0.12727   -0.55689
 19 Pd    0.00675    0.00390   -0.00389
 20 Pd   -0.18344    0.00098   -0.15038
 21 Pd   -0.01956   -0.01806    0.01191
 22 Pd   -0.09087   -0.15936   -0.15038
 23 Pd   -0.00292   -0.00169    0.10509
 24 Pd    0.00131    0.00076   -0.02013
 25 Pd    0.04456    0.33171   -0.55690
 26 Pd   -0.02542   -0.00791    0.01191
 27 Pd   -0.03634   -0.02098    0.25264
 28 Pd    0.24584    0.17041    0.07535
 29 Pd   -0.20921   -0.16729    0.06005
 30 Pd    0.27050    0.12770    0.07535
 31 Pd    0.38674    0.22328    0.14309
 32 Pd   -0.73786    1.25274    0.64825
 33 Pd   -0.24948   -0.09754    0.06005
 34 Pd    0.71598   -1.26538    0.64826
 35 Pd   -0.41130   -0.23747    0.13490
 36 O    -0.04101   -0.02367   -3.43846
 37 H     0.02920    0.01686    2.74299

System changes: positions 

Initializing position-dependent things.

Density initialized from wave functions
                                           
                                           
                                           
                                           
                                           
                        O                  
                                           
                Pd     PH     Pd           
                                           
            Pd   PPd    PPd    Pd          
       Pd    PPd   PPd    Pd               
                                           
        Pd     Pd   PPd    Pd    Pd        
                                           
                Pd    Pd     Pd            
           Pd    Pd     Pd                 
                Pd     Pd     Pd           
            Pd    Pd     Pd                
       Pd     Pd    Pd                     
                                           
                                           
                                           
                                           

Atomic positions and initial magnetic moments

Positions:
   0 Pd     0.000000    0.000000   10.000000    ( 0.0000,  0.0000,  0.0000)
   1 Pd     2.715573    0.000000   10.000000    ( 0.0000,  0.0000,  0.0000)
   2 Pd     5.431146    0.000000   10.000000    ( 0.0000,  0.0000,  0.0000)
   3 Pd     1.357786    2.351755   10.000000    ( 0.0000,  0.0000,  0.0000)
   4 Pd     4.073359    2.351755   10.000000    ( 0.0000,  0.0000,  0.0000)
   5 Pd     6.788932    2.351755   10.000000    ( 0.0000,  0.0000,  0.0000)
   6 Pd     2.715573    4.703510   10.000000    ( 0.0000,  0.0000,  0.0000)
   7 Pd     5.431146    4.703510   10.000000    ( 0.0000,  0.0000,  0.0000)
   8 Pd     8.146719    4.703510   10.000000    ( 0.0000,  0.0000,  0.0000)
   9 Pd     1.357786    0.783918   12.217256    ( 0.0000,  0.0000,  0.0000)
  10 Pd     4.073359    0.783918   12.217256    ( 0.0000,  0.0000,  0.0000)
  11 Pd     6.788932    0.783918   12.217256    ( 0.0000,  0.0000,  0.0000)
  12 Pd     2.715573    3.135673   12.217256    ( 0.0000,  0.0000,  0.0000)
  13 Pd     5.431146    3.135673   12.217256    ( 0.0000,  0.0000,  0.0000)
  14 Pd     8.146719    3.135673   12.217256    ( 0.0000,  0.0000,  0.0000)
  15 Pd     4.073359    5.487429   12.217256    ( 0.0000,  0.0000,  0.0000)
  16 Pd     6.788932    5.487429   12.217256    ( 0.0000,  0.0000,  0.0000)
  17 Pd     9.504505    5.487429   12.217256    ( 0.0000,  0.0000,  0.0000)
  18 Pd    -0.001647    1.567819   14.487205    ( 0.0000,  0.0000,  0.0000)
  19 Pd     2.716247    1.568225   14.484775    ( 0.0000,  0.0000,  0.0000)
  20 Pd     5.431282    1.566888   14.483086    ( 0.0000,  0.0000,  0.0000)
  21 Pd     1.357803    3.920087   14.483937    ( 0.0000,  0.0000,  0.0000)
  22 Pd     4.072607    3.920183   14.483086    ( 0.0000,  0.0000,  0.0000)
  23 Pd     6.789492    3.919914   14.480462    ( 0.0000,  0.0000,  0.0000)
  24 Pd     2.715290    6.271183   14.483685    ( 0.0000,  0.0000,  0.0000)
  25 Pd     5.430308    6.269929   14.487205    ( 0.0000,  0.0000,  0.0000)
  26 Pd     8.147156    6.271113   14.483937    ( 0.0000,  0.0000,  0.0000)
  27 Pd     0.000479    0.000276   16.770110    ( 0.0000,  0.0000,  0.0000)
  28 Pd     2.715589    0.002365   16.769751    ( 0.0000,  0.0000,  0.0000)
  29 Pd     5.430770   -0.001960   16.769743    ( 0.0000,  0.0000,  0.0000)
  30 Pd     1.359843    2.350586   16.769751    ( 0.0000,  0.0000,  0.0000)
  31 Pd     4.066777    2.347954   16.773006    ( 0.0000,  0.0000,  0.0000)
  32 Pd     6.823468    2.294435   16.737324    ( 0.0000,  0.0000,  0.0000)
  33 Pd     2.713688    4.704164   16.769743    ( 0.0000,  0.0000,  0.0000)
  34 Pd     5.398773    4.762079   16.737324    ( 0.0000,  0.0000,  0.0000)
  35 Pd     8.151652    4.706358   16.772960    ( 0.0000,  0.0000,  0.0000)
  36 O      6.109213    3.527156   18.846221    ( 0.0000,  0.0000,  0.0000)
  37 H      6.111159    3.528279   17.750188    ( 0.0000,  0.0000,  0.0000)

Unit cell:
           periodic     x           y           z      points  spacing
  1. axis:    yes    8.146719    0.000000    0.000000    36     0.1960
  2. axis:    yes    4.073359    7.055265    0.000000    36     0.1960
  3. axis:    no     0.000000    0.000000   26.651768   132     0.2019

  Lengths:   8.146719   8.146719  26.651768
  Angles:   90.000000  90.000000  60.000000

Effective grid spacing dv^(1/3) = 0.2077

     iter     time        total  log10-change:  magmom
                         energy   eigst   dens
iter:   1 17:09:39  -105.530940        c          +0.0000
iter:   2 17:16:53  -134.260342        c -1.95    +0.0000
iter:   3 17:23:35  -105.395266        c -1.54    +0.0000
iter:   4 17:29:46  -103.714632        c -2.05    +0.0000
iter:   5 17:37:03  -102.726521        c -2.19    -0.0000
iter:   6 17:43:37  -102.794849        c -2.76    -0.0000
iter:   7 17:51:02  -103.130730        c -2.58    -0.0000
iter:   8 17:57:18  -102.681433        c -2.30    -0.0000
iter:   9 18:03:44  -102.637709        c -2.80    -0.0000
iter:  10 18:09:37  -102.642004c       c -3.15    -0.0000
iter:  11 18:15:28  -102.627934c       c -3.06    +0.0000
iter:  12 18:21:24  -102.621549c       c -3.25    +0.0000
iter:  13 18:28:56  -102.621045c       c -3.46    +0.0000
iter:  14 18:35:38  -102.620662c       c -3.74    +0.0000
iter:  15 18:42:29  -102.621405c       c -3.90    +0.0000
iter:  16 18:48:36  -102.620730c       c -3.84    +0.0000
iter:  17 18:55:27  -102.620510c       c -4.00c   +0.0000

Converged after 17 iterations.

Dipole moment: (-13.202770, -7.622583, -0.563440) |e|*Ang

Total magnetic moment: (0.000000, 0.000000, 0.000000)
Local magnetic moments:
   0 Pd ( 0.000000,  0.000000, -0.000000)
   1 Pd ( 0.000000,  0.000000, -0.000000)
   2 Pd ( 0.000000,  0.000000,  0.000000)
   3 Pd ( 0.000000,  0.000000,  0.000000)
   4 Pd ( 0.000000,  0.000000, -0.000000)
   5 Pd ( 0.000000,  0.000000,  0.000000)
   6 Pd ( 0.000000,  0.000000,  0.000000)
   7 Pd ( 0.000000,  0.000000,  0.000000)
   8 Pd ( 0.000000,  0.000000,  0.000000)
   9 Pd ( 0.000000,  0.000000,  0.000000)
  10 Pd ( 0.000000,  0.000000,  0.000000)
  11 Pd ( 0.000000,  0.000000,  0.000000)
  12 Pd ( 0.000000,  0.000000,  0.000000)
  13 Pd ( 0.000000,  0.000000,  0.000000)
  14 Pd ( 0.000000,  0.000000,  0.000000)
  15 Pd ( 0.000000,  0.000000,  0.000000)
  16 Pd ( 0.000000,  0.000000,  0.000000)
  17 Pd ( 0.000000,  0.000000,  0.000000)
  18 Pd ( 0.000000,  0.000000,  0.000000)
  19 Pd ( 0.000000,  0.000000,  0.000000)
  20 Pd ( 0.000000,  0.000000,  0.000000)
  21 Pd ( 0.000000,  0.000000,  0.000000)
  22 Pd ( 0.000000,  0.000000,  0.000000)
  23 Pd ( 0.000000,  0.000000,  0.000000)
  24 Pd ( 0.000000,  0.000000,  0.000000)
  25 Pd ( 0.000000,  0.000000,  0.000000)
  26 Pd ( 0.000000,  0.000000,  0.000000)
  27 Pd ( 0.000000,  0.000000,  0.000000)
  28 Pd ( 0.000000,  0.000000,  0.000000)
  29 Pd ( 0.000000,  0.000000,  0.000000)
  30 Pd ( 0.000000,  0.000000,  0.000000)
  31 Pd ( 0.000000,  0.000000,  0.000000)
  32 Pd ( 0.000000,  0.000000,  0.000000)
  33 Pd ( 0.000000,  0.000000,  0.000000)
  34 Pd ( 0.000000,  0.000000,  0.000000)
  35 Pd ( 0.000000,  0.000000,  0.000000)
  36 O  ( 0.000000,  0.000000,  0.000000)
  37 H  ( 0.000000,  0.000000, -0.000000)

Energy contributions relative to reference atoms: (reference = -4942243.008314)

Kinetic:       -1932.044370
Potential:     +1695.558073
External:        +0.000000
XC:            +132.186841
Entropy (-ST):   -2.513666
Local:           +2.935779
SIC:             +0.000000
--------------------------
Free energy:   -103.877343
Extrapolated:  -102.620510

Spin contamination: 0.000000 electrons
Showing only first 2 kpts
                      Up                     Down
 Kpt  Band  Eigenvalues  Occupancy  Eigenvalues  Occupancy
  0   289     -6.49539    0.93968     -6.49539    0.93968
  0   290     -6.49195    0.93771     -6.49195    0.93771
  0   291     -6.48221    0.93177     -6.48221    0.93177
  0   292     -6.46046    0.91657     -6.46046    0.91657

  1   289     -6.30360    0.69594     -6.30360    0.69594
  1   290     -6.28656    0.65873     -6.28656    0.65873
  1   291     -6.20833    0.46889     -6.20833    0.46889
  1   292     -6.17757    0.39358     -6.17757    0.39358


Fermi level: -6.22079

No gap
No difference between direct/indirect transitions

Forces in eV/Ang:
  0 Pd   -0.01259   -0.00727   -0.49862
  1 Pd    0.01095   -0.01012   -0.51030
  2 Pd    0.00783   -0.01431   -0.50812
  3 Pd   -0.00329    0.01454   -0.51030
  4 Pd    0.00725    0.00419   -0.50021
  5 Pd   -0.00580    0.00431   -0.50536
  6 Pd   -0.00848    0.01393   -0.50812
  7 Pd    0.00083   -0.00718   -0.50536
  8 Pd    0.00908    0.00524   -0.51409
  9 Pd   -0.00599   -0.00346    0.52179
 10 Pd   -0.01059    0.00532    0.49619
 11 Pd    0.00761    0.00837    0.50983
 12 Pd   -0.00069   -0.01184    0.49619
 13 Pd    0.00159    0.00092    0.52072
 14 Pd    0.00447   -0.01055    0.50243
 15 Pd    0.01106    0.00241    0.50983
 16 Pd   -0.00690    0.00915    0.50243
 17 Pd   -0.00612   -0.00353    0.50608
 18 Pd    0.05881   -0.03840   -0.11173
 19 Pd    0.01807    0.01043   -0.00682
 20 Pd   -0.06510   -0.01580   -0.08926
 21 Pd   -0.00720    0.00226   -0.01706
 22 Pd   -0.04623   -0.04848   -0.08926
 23 Pd    0.00906    0.00523   -0.04268
 24 Pd   -0.00797   -0.00460   -0.04060
 25 Pd   -0.00385    0.07013   -0.11173
 26 Pd   -0.00164   -0.00736   -0.01706
 27 Pd    0.00076    0.00044    0.14193
 28 Pd    0.08270    0.09768    0.08993
 29 Pd   -0.07766   -0.08861    0.08395
 30 Pd    0.12594    0.02277    0.08993
 31 Pd    0.03997    0.02308    0.17685
 32 Pd    0.33055   -0.50758   -0.23388
 33 Pd   -0.11557   -0.02295    0.08395
 34 Pd   -0.27429    0.54006   -0.23387
 35 Pd   -0.07554   -0.04361    0.17045
 36 O    -0.03699   -0.02135   -1.05762
 37 H     0.03926    0.02266    1.58783

System changes: positions 

Initializing position-dependent things.

Density initialized from wave functions
                                           
                                           
                                           
                                           
                                           
                        O                  
                        H                  
                Pd     Pd     Pd           
            Pd    Pd                       
                 Pd     PPd    Pd          
       Pd    PPd   PPd    Pd               
                                           
        Pd     Pd   PPd    Pd    Pd        
                                           
                Pd    Pd     Pd            
           Pd    Pd     Pd                 
                Pd     Pd     Pd           
            Pd    Pd     Pd                
       Pd     Pd    Pd                     
                                           
                                           
                                           
                                           

Atomic positions and initial magnetic moments

Positions:
   0 Pd     0.000000    0.000000   10.000000    ( 0.0000,  0.0000,  0.0000)
   1 Pd     2.715573    0.000000   10.000000    ( 0.0000,  0.0000,  0.0000)
   2 Pd     5.431146    0.000000   10.000000    ( 0.0000,  0.0000,  0.0000)
   3 Pd     1.357786    2.351755   10.000000    ( 0.0000,  0.0000,  0.0000)
   4 Pd     4.073359    2.351755   10.000000    ( 0.0000,  0.0000,  0.0000)
   5 Pd     6.788932    2.351755   10.000000    ( 0.0000,  0.0000,  0.0000)
   6 Pd     2.715573    4.703510   10.000000    ( 0.0000,  0.0000,  0.0000)
   7 Pd     5.431146    4.703510   10.000000    ( 0.0000,  0.0000,  0.0000)
   8 Pd     8.146719    4.703510   10.000000    ( 0.0000,  0.0000,  0.0000)
   9 Pd     1.357786    0.783918   12.217256    ( 0.0000,  0.0000,  0.0000)
  10 Pd     4.073359    0.783918   12.217256    ( 0.0000,  0.0000,  0.0000)
  11 Pd     6.788932    0.783918   12.217256    ( 0.0000,  0.0000,  0.0000)
  12 Pd     2.715573    3.135673   12.217256    ( 0.0000,  0.0000,  0.0000)
  13 Pd     5.431146    3.135673   12.217256    ( 0.0000,  0.0000,  0.0000)
  14 Pd     8.146719    3.135673   12.217256    ( 0.0000,  0.0000,  0.0000)
  15 Pd     4.073359    5.487429   12.217256    ( 0.0000,  0.0000,  0.0000)
  16 Pd     6.788932    5.487429   12.217256    ( 0.0000,  0.0000,  0.0000)
  17 Pd     9.504505    5.487429   12.217256    ( 0.0000,  0.0000,  0.0000)
  18 Pd     0.002742    1.564067   14.478080    ( 0.0000,  0.0000,  0.0000)
  19 Pd     2.718593    1.569580   14.483866    ( 0.0000,  0.0000,  0.0000)
  20 Pd     5.425060    1.564567   14.472719    ( 0.0000,  0.0000,  0.0000)
  21 Pd     1.357134    3.920732   14.481329    ( 0.0000,  0.0000,  0.0000)
  22 Pd     4.067485    3.915955   14.472719    ( 0.0000,  0.0000,  0.0000)
  23 Pd     6.790863    3.920706   14.472455    ( 0.0000,  0.0000,  0.0000)
  24 Pd     2.714295    6.270609   14.478570    ( 0.0000,  0.0000,  0.0000)
  25 Pd     5.429253    6.275606   14.478080    ( 0.0000,  0.0000,  0.0000)
  26 Pd     8.147380    6.270211   14.481329    ( 0.0000,  0.0000,  0.0000)
  27 Pd     0.000997    0.000575   16.784688    ( 0.0000,  0.0000,  0.0000)
  28 Pd     2.723720    0.013900   16.778954    ( 0.0000,  0.0000,  0.0000)
  29 Pd     5.422919   -0.012220   16.778355    ( 0.0000,  0.0000,  0.0000)
  30 Pd     1.373899    2.351860   16.778954    ( 0.0000,  0.0000,  0.0000)
  31 Pd     4.065236    2.347064   16.793410    ( 0.0000,  0.0000,  0.0000)
  32 Pd     6.884583    2.197110   16.687875    ( 0.0000,  0.0000,  0.0000)
  33 Pd     2.700877    4.702495   16.778355    ( 0.0000,  0.0000,  0.0000)
  34 Pd     5.345045    4.863668   16.687876    ( 0.0000,  0.0000,  0.0000)
  35 Pd     8.148435    4.704501   16.792700    ( 0.0000,  0.0000,  0.0000)
  36 O      6.104912    3.524673   18.807141    ( 0.0000,  0.0000,  0.0000)
  37 H      6.115925    3.531030   17.889329    ( 0.0000,  0.0000,  0.0000)

Unit cell:
           periodic     x           y           z      points  spacing
  1. axis:    yes    8.146719    0.000000    0.000000    36     0.1960
  2. axis:    yes    4.073359    7.055265    0.000000    36     0.1960
  3. axis:    no     0.000000    0.000000   26.651768   132     0.2019

  Lengths:   8.146719   8.146719  26.651768
  Angles:   90.000000  90.000000  60.000000

Effective grid spacing dv^(1/3) = 0.2077

     iter     time        total  log10-change:  magmom
                         energy   eigst   dens
iter:   1 19:21:37  -104.817921        c          +0.0000
iter:   2 19:28:41  -129.572621        c -1.97    +0.0000
iter:   3 19:35:02  -108.917477        c -1.59    +0.0000
iter:   4 19:41:11  -104.088062        c -1.87    +0.0000
iter:   5 19:48:29  -102.635034        c -2.15    +0.0000
iter:   6 19:56:36  -102.384375        c -2.50    +0.0000
iter:   7 20:03:37  -102.477190c       c -2.78    +0.0000
iter:   8 20:10:11  -102.342106c       c -2.58    +0.0000
iter:   9 20:17:13  -102.466476c       c -2.90    +0.0000
iter:  10 20:23:34  -102.477869c       c -2.53    +0.0000
iter:  11 20:29:55  -102.290448c       c -2.51    +0.0000
iter:  12 20:37:35  -102.288669c       c -3.33    +0.0000
iter:  13 20:44:12  -102.287420c       c -3.51    +0.0000
iter:  14 20:50:47  -102.287030c       c -3.66    +0.0000
iter:  15 21:01:22  -102.286932c       c -3.62    +0.0000
iter:  16 21:12:40  -102.286271c       c -3.77    +0.0000
iter:  17 21:20:53  -102.287497c       c -3.70    +0.0000
iter:  18 21:27:04  -102.286825c       c -3.69    +0.0000
iter:  19 21:33:18  -102.285371c       c -3.82    +0.0000
iter:  20 21:40:12  -102.285443c       c -3.88    +0.0000
iter:  21 21:47:18  -102.285372c       c -4.49c   +0.0000

Converged after 21 iterations.

Dipole moment: (-13.173737, -7.605813, -0.616119) |e|*Ang

Total magnetic moment: (0.000000, 0.000000, 0.000000)
Local magnetic moments:
   0 Pd ( 0.000000,  0.000000,  0.000000)
   1 Pd ( 0.000000,  0.000000,  0.000000)
   2 Pd ( 0.000000,  0.000000, -0.000000)
   3 Pd ( 0.000000,  0.000000,  0.000000)
   4 Pd ( 0.000000,  0.000000,  0.000000)
   5 Pd ( 0.000000,  0.000000,  0.000000)
   6 Pd ( 0.000000,  0.000000,  0.000000)
   7 Pd ( 0.000000,  0.000000,  0.000000)
   8 Pd ( 0.000000,  0.000000,  0.000000)
   9 Pd ( 0.000000,  0.000000,  0.000000)
  10 Pd ( 0.000000,  0.000000,  0.000000)
  11 Pd ( 0.000000,  0.000000,  0.000000)
  12 Pd ( 0.000000,  0.000000,  0.000000)
  13 Pd ( 0.000000,  0.000000,  0.000000)
  14 Pd ( 0.000000,  0.000000,  0.000000)
  15 Pd ( 0.000000,  0.000000,  0.000000)
  16 Pd ( 0.000000,  0.000000,  0.000000)
  17 Pd ( 0.000000,  0.000000,  0.000000)
  18 Pd ( 0.000000,  0.000000,  0.000000)
  19 Pd ( 0.000000,  0.000000,  0.000000)
  20 Pd ( 0.000000,  0.000000,  0.000000)
  21 Pd ( 0.000000,  0.000000,  0.000000)
  22 Pd ( 0.000000,  0.000000,  0.000000)
  23 Pd ( 0.000000,  0.000000,  0.000000)
  24 Pd ( 0.000000,  0.000000,  0.000000)
  25 Pd ( 0.000000,  0.000000,  0.000000)
  26 Pd ( 0.000000,  0.000000,  0.000000)
  27 Pd ( 0.000000,  0.000000,  0.000000)
  28 Pd ( 0.000000,  0.000000,  0.000000)
  29 Pd ( 0.000000,  0.000000,  0.000000)
  30 Pd ( 0.000000,  0.000000,  0.000000)
  31 Pd ( 0.000000,  0.000000,  0.000000)
  32 Pd ( 0.000000,  0.000000,  0.000000)
  33 Pd ( 0.000000,  0.000000,  0.000000)
  34 Pd ( 0.000000,  0.000000,  0.000000)
  35 Pd ( 0.000000,  0.000000,  0.000000)
  36 O  ( 0.000000,  0.000000,  0.000000)
  37 H  ( 0.000000,  0.000000,  0.000000)

Energy contributions relative to reference atoms: (reference = -4942243.008314)

Kinetic:       -1923.656194
Potential:     +1689.137344
External:        +0.000000
XC:            +130.594509
Entropy (-ST):   -2.506616
Local:           +2.892276
SIC:             +0.000000
--------------------------
Free energy:   -103.538680
Extrapolated:  -102.285372

Spin contamination: 0.000000 electrons
Showing only first 2 kpts
                      Up                     Down
 Kpt  Band  Eigenvalues  Occupancy  Eigenvalues  Occupancy
  0   289     -6.54193    0.93724     -6.54193    0.93724
  0   290     -6.53505    0.93306     -6.53505    0.93306
  0   291     -6.51276    0.91773     -6.51276    0.91773
  0   292     -6.49019    0.89899     -6.49019    0.89899

  1   289     -6.34193    0.66896     -6.34193    0.66896
  1   290     -6.33462    0.65259     -6.33462    0.65259
  1   291     -6.27183    0.50062     -6.27183    0.50062
  1   292     -6.22869    0.39439     -6.22869    0.39439


Fermi level: -6.27158

No gap
No difference between direct/indirect transitions

Forces in eV/Ang:
  0 Pd   -0.01292   -0.00746   -0.47985
  1 Pd    0.01216   -0.00908   -0.48416
  2 Pd    0.00567   -0.01618   -0.48867
  3 Pd   -0.00178    0.01508   -0.48416
  4 Pd    0.00867    0.00501   -0.48366
  5 Pd   -0.00623    0.00538   -0.48383
  6 Pd   -0.01118    0.01301   -0.48867
  7 Pd    0.00154   -0.00808   -0.48383
  8 Pd    0.01140    0.00658   -0.49621
  9 Pd    0.00093    0.00053    0.51244
 10 Pd   -0.02146   -0.00157    0.45800
 11 Pd    0.00687    0.00349    0.44406
 12 Pd   -0.01209   -0.01780    0.45799
 13 Pd    0.00775    0.00448    0.45243
 14 Pd    0.00959   -0.00258    0.45294
 15 Pd    0.00646    0.00420    0.44406
 16 Pd    0.00257    0.00960    0.45294
 17 Pd   -0.01254   -0.00724    0.46793
 18 Pd    0.18954   -0.06098   -0.32867
 19 Pd    0.00957    0.00553    0.06575
 20 Pd   -0.06768    0.00992    0.01196
 21 Pd   -0.04830   -0.01393    0.07968
 22 Pd   -0.02525   -0.06357    0.01196
 23 Pd   -0.03421   -0.01975    0.19817
 24 Pd    0.01626    0.00939    0.08732
 25 Pd    0.04196    0.19464   -0.32867
 26 Pd   -0.03622   -0.03487    0.07968
 27 Pd   -0.02746   -0.01585    0.15307
 28 Pd    0.15258    0.07243    0.00855
 29 Pd   -0.12210   -0.06708   -0.00218
 30 Pd    0.13901    0.09592    0.00854
 31 Pd    0.42308    0.24427    0.05424
 32 Pd   -0.70180    1.12589    0.38187
 33 Pd   -0.11914   -0.07221   -0.00218
 34 Pd    0.62415   -1.17073    0.38187
 35 Pd   -0.40834   -0.23576    0.04144
 36 O    -0.15090   -0.08710    5.76498
 37 H     0.17024    0.09828   -6.17549

System changes: positions 

Initializing position-dependent things.

Density initialized from wave functions
                                           
                                           
                                           
                                           
                                           
                        O                  
                                           
                Pd     PH     Pd           
                                           
            Pd   PPd    PPd    Pd          
       Pd    PPd   PPd    Pd               
                                           
        Pd     Pd   PPd    Pd    Pd        
                                           
                Pd    Pd     Pd            
           Pd    Pd     Pd                 
                Pd     Pd     Pd           
            Pd    Pd     Pd                
       Pd     Pd    Pd                     
                                           
                                           
                                           
                                           

Atomic positions and initial magnetic moments

Positions:
   0 Pd     0.000000    0.000000   10.000000    ( 0.0000,  0.0000,  0.0000)
   1 Pd     2.715573    0.000000   10.000000    ( 0.0000,  0.0000,  0.0000)
   2 Pd     5.431146    0.000000   10.000000    ( 0.0000,  0.0000,  0.0000)
   3 Pd     1.357786    2.351755   10.000000    ( 0.0000,  0.0000,  0.0000)
   4 Pd     4.073359    2.351755   10.000000    ( 0.0000,  0.0000,  0.0000)
   5 Pd     6.788932    2.351755   10.000000    ( 0.0000,  0.0000,  0.0000)
   6 Pd     2.715573    4.703510   10.000000    ( 0.0000,  0.0000,  0.0000)
   7 Pd     5.431146    4.703510   10.000000    ( 0.0000,  0.0000,  0.0000)
   8 Pd     8.146719    4.703510   10.000000    ( 0.0000,  0.0000,  0.0000)
   9 Pd     1.357786    0.783918   12.217256    ( 0.0000,  0.0000,  0.0000)
  10 Pd     4.073359    0.783918   12.217256    ( 0.0000,  0.0000,  0.0000)
  11 Pd     6.788932    0.783918   12.217256    ( 0.0000,  0.0000,  0.0000)
  12 Pd     2.715573    3.135673   12.217256    ( 0.0000,  0.0000,  0.0000)
  13 Pd     5.431146    3.135673   12.217256    ( 0.0000,  0.0000,  0.0000)
  14 Pd     8.146719    3.135673   12.217256    ( 0.0000,  0.0000,  0.0000)
  15 Pd     4.073359    5.487429   12.217256    ( 0.0000,  0.0000,  0.0000)
  16 Pd     6.788932    5.487429   12.217256    ( 0.0000,  0.0000,  0.0000)
  17 Pd     9.504505    5.487429   12.217256    ( 0.0000,  0.0000,  0.0000)
  18 Pd    -0.000265    1.566638   14.484332    ( 0.0000,  0.0000,  0.0000)
  19 Pd     2.716986    1.568652   14.484489    ( 0.0000,  0.0000,  0.0000)
  20 Pd     5.429323    1.566158   14.479822    ( 0.0000,  0.0000,  0.0000)
  21 Pd     1.357592    3.920290   14.483116    ( 0.0000,  0.0000,  0.0000)
  22 Pd     4.070994    3.918852   14.479822    ( 0.0000,  0.0000,  0.0000)
  23 Pd     6.789923    3.920163   14.477941    ( 0.0000,  0.0000,  0.0000)
  24 Pd     2.714977    6.271002   14.482075    ( 0.0000,  0.0000,  0.0000)
  25 Pd     5.429976    6.271716   14.484332    ( 0.0000,  0.0000,  0.0000)
  26 Pd     8.147227    6.270829   14.483116    ( 0.0000,  0.0000,  0.0000)
  27 Pd     0.000642    0.000370   16.774699    ( 0.0000,  0.0000,  0.0000)
  28 Pd     2.718149    0.005996   16.772648    ( 0.0000,  0.0000,  0.0000)
  29 Pd     5.428298   -0.005190   16.772454    ( 0.0000,  0.0000,  0.0000)
  30 Pd     1.364268    2.350987   16.772648    ( 0.0000,  0.0000,  0.0000)
  31 Pd     4.066292    2.347674   16.779430    ( 0.0000,  0.0000,  0.0000)
  32 Pd     6.842708    2.263795   16.721757    ( 0.0000,  0.0000,  0.0000)
  33 Pd     2.709655    4.703639   16.772454    ( 0.0000,  0.0000,  0.0000)
  34 Pd     5.381859    4.794061   16.721757    ( 0.0000,  0.0000,  0.0000)
  35 Pd     8.150640    4.705773   16.779175    ( 0.0000,  0.0000,  0.0000)
  36 O      6.107859    3.526374   18.833918    ( 0.0000,  0.0000,  0.0000)
  37 H      6.112659    3.529145   17.793992    ( 0.0000,  0.0000,  0.0000)

Unit cell:
           periodic     x           y           z      points  spacing
  1. axis:    yes    8.146719    0.000000    0.000000    36     0.1960
  2. axis:    yes    4.073359    7.055265    0.000000    36     0.1960
  3. axis:    no     0.000000    0.000000   26.651768   132     0.2019

  Lengths:   8.146719   8.146719  26.651768
  Angles:   90.000000  90.000000  60.000000

Effective grid spacing dv^(1/3) = 0.2077

     iter     time        total  log10-change:  magmom
                         energy   eigst   dens
iter:   1 22:12:15  -103.946506        c          +0.0000
iter:   2 22:19:26  -117.298732        c -2.17    +0.0000
iter:   3 22:25:37  -103.081172        c -1.72    +0.0000
iter:   4 22:34:05  -103.523603        c -2.43    +0.0000
iter:   5 22:40:46  -102.916647        c -2.19    +0.0000
iter:   6 22:46:56  -102.812825        c -2.54    +0.0000
iter:   7 22:52:55  -102.800984c       c -2.68    +0.0000
iter:   8 23:00:40  -102.713077c       c -2.62    +0.0000
iter:   9 23:07:41  -102.715613c       c -3.18    +0.0000
iter:  10 23:15:10  -102.700131c       c -3.05    +0.0000
iter:  11 23:22:01  -102.700857c       c -3.56    +0.0000
iter:  12 23:28:21  -102.700140c       c -3.61    +0.0000
iter:  13 23:34:15  -102.703983c       c -3.72    +0.0000
iter:  14 23:41:22  -102.698387c       c -3.36    +0.0000
iter:  15 23:47:47  -102.698247c       c -3.72    +0.0000
iter:  16 23:54:29  -102.698485c       c -3.90    +0.0000
iter:  17 00:00:51  -102.697933c       c -4.02c   +0.0000

Converged after 17 iterations.

Dipole moment: (-13.196639, -7.619041, -0.573815) |e|*Ang

Total magnetic moment: (0.000000, 0.000000, 0.000000)
Local magnetic moments:
   0 Pd ( 0.000000,  0.000000,  0.000000)
   1 Pd ( 0.000000,  0.000000,  0.000000)
   2 Pd ( 0.000000,  0.000000,  0.000000)
   3 Pd ( 0.000000,  0.000000,  0.000000)
   4 Pd ( 0.000000,  0.000000,  0.000000)
   5 Pd ( 0.000000,  0.000000,  0.000000)
   6 Pd ( 0.000000,  0.000000,  0.000000)
   7 Pd ( 0.000000,  0.000000,  0.000000)
   8 Pd ( 0.000000,  0.000000,  0.000000)
   9 Pd ( 0.000000,  0.000000,  0.000000)
  10 Pd ( 0.000000,  0.000000,  0.000000)
  11 Pd ( 0.000000,  0.000000,  0.000000)
  12 Pd ( 0.000000,  0.000000,  0.000000)
  13 Pd ( 0.000000,  0.000000,  0.000000)
  14 Pd ( 0.000000,  0.000000,  0.000000)
  15 Pd ( 0.000000,  0.000000,  0.000000)
  16 Pd ( 0.000000,  0.000000,  0.000000)
  17 Pd ( 0.000000,  0.000000,  0.000000)
  18 Pd ( 0.000000,  0.000000,  0.000000)
  19 Pd ( 0.000000,  0.000000,  0.000000)
  20 Pd ( 0.000000,  0.000000,  0.000000)
  21 Pd ( 0.000000,  0.000000,  0.000000)
  22 Pd ( 0.000000,  0.000000,  0.000000)
  23 Pd ( 0.000000,  0.000000,  0.000000)
  24 Pd ( 0.000000,  0.000000,  0.000000)
  25 Pd ( 0.000000,  0.000000,  0.000000)
  26 Pd ( 0.000000,  0.000000,  0.000000)
  27 Pd ( 0.000000,  0.000000,  0.000000)
  28 Pd ( 0.000000,  0.000000,  0.000000)
  29 Pd ( 0.000000,  0.000000,  0.000000)
  30 Pd ( 0.000000,  0.000000,  0.000000)
  31 Pd ( 0.000000,  0.000000,  0.000000)
  32 Pd ( 0.000000,  0.000000,  0.000000)
  33 Pd ( 0.000000,  0.000000,  0.000000)
  34 Pd ( 0.000000,  0.000000,  0.000000)
  35 Pd ( 0.000000,  0.000000,  0.000000)
  36 O  ( 0.000000,  0.000000,  0.000000)
  37 H  ( 0.000000,  0.000000, -0.000000)

Energy contributions relative to reference atoms: (reference = -4942243.008314)

Kinetic:       -1930.226976
Potential:     +1694.173334
External:        +0.000000
XC:            +131.795122
Entropy (-ST):   -2.512358
Local:           +2.816766
SIC:             +0.000000
--------------------------
Free energy:   -103.954112
Extrapolated:  -102.697933

Spin contamination: 0.000000 electrons
Showing only first 2 kpts
                      Up                     Down
 Kpt  Band  Eigenvalues  Occupancy  Eigenvalues  Occupancy
  0   289     -6.50571    0.93947     -6.50571    0.93947
  0   290     -6.50036    0.93636     -6.50036    0.93636
  0   291     -6.49331    0.93202     -6.49331    0.93202
  0   292     -6.47283    0.91784     -6.47283    0.91784

  1   289     -6.30856    0.68367     -6.30856    0.68367
  1   290     -6.29843    0.66135     -6.29843    0.66135
  1   291     -6.22356    0.48019     -6.22356    0.48019
  1   292     -6.18766    0.39213     -6.18766    0.39213


Fermi level: -6.23149

No gap
No difference between direct/indirect transitions

Forces in eV/Ang:
  0 Pd   -0.01432   -0.00827   -0.49226
  1 Pd    0.01230   -0.01068   -0.50101
  2 Pd    0.00797   -0.01650   -0.50314
  3 Pd   -0.00310    0.01600   -0.50101
  4 Pd    0.00812    0.00469   -0.49498
  5 Pd   -0.00625    0.00532   -0.49971
  6 Pd   -0.01030    0.01515   -0.50314
  7 Pd    0.00148   -0.00807   -0.49971
  8 Pd    0.01026    0.00593   -0.51006
  9 Pd   -0.00270   -0.00156    0.50369
 10 Pd   -0.01425    0.00299    0.47556
 11 Pd    0.00725    0.00568    0.48073
 12 Pd   -0.00454   -0.01384    0.47556
 13 Pd    0.00476    0.00275    0.49077
 14 Pd    0.00486   -0.00693    0.48101
 15 Pd    0.00855    0.00344    0.48073
 16 Pd   -0.00357    0.00767    0.48101
 17 Pd   -0.00789   -0.00456    0.48431
 18 Pd    0.09074   -0.04612   -0.16482
 19 Pd    0.01647    0.00951    0.02227
 20 Pd   -0.06514   -0.01743   -0.07165
 21 Pd   -0.02024   -0.00061    0.01508
 22 Pd   -0.04766   -0.04770   -0.07165
 23 Pd    0.00309    0.00178   -0.00505
 24 Pd    0.00213    0.00123    0.00814
 25 Pd    0.00543    0.10164   -0.16481
 26 Pd   -0.01065   -0.01722    0.01508
 27 Pd   -0.00587   -0.00339    0.10960
 28 Pd    0.09957    0.10899    0.03318
 29 Pd   -0.08757   -0.09876    0.02692
 30 Pd    0.14417    0.03174    0.03318
 31 Pd    0.15335    0.08853    0.11680
 32 Pd   -0.00886    0.04123   -0.06114
 33 Pd   -0.12931   -0.02646    0.02692
 34 Pd    0.03128   -0.02829   -0.06114
 35 Pd   -0.17232   -0.09949    0.10887
 36 O    -0.05495   -0.03172    0.01798
 37 H     0.05815    0.03357    0.12467

System changes: positions 

Initializing position-dependent things.

Density initialized from wave functions
                                           
                                           
                                           
                                           
                                           
                        O                  
                                           
                Pd     PH     Pd           
                  Pd                       
            Pd   Pd     PPd    Pd          
       Pd    PPd   PPd    Pd               
                                           
        Pd     Pd   PPd    Pd    Pd        
                                           
                Pd    Pd     Pd            
           Pd    Pd     Pd                 
                Pd     Pd     Pd           
            Pd    Pd     Pd                
       Pd     Pd    Pd                     
                                           
                                           
                                           
                                           

Atomic positions and initial magnetic moments

Positions:
   0 Pd     0.000000    0.000000   10.000000    ( 0.0000,  0.0000,  0.0000)
   1 Pd     2.715573    0.000000   10.000000    ( 0.0000,  0.0000,  0.0000)
   2 Pd     5.431146    0.000000   10.000000    ( 0.0000,  0.0000,  0.0000)
   3 Pd     1.357786    2.351755   10.000000    ( 0.0000,  0.0000,  0.0000)
   4 Pd     4.073359    2.351755   10.000000    ( 0.0000,  0.0000,  0.0000)
   5 Pd     6.788932    2.351755   10.000000    ( 0.0000,  0.0000,  0.0000)
   6 Pd     2.715573    4.703510   10.000000    ( 0.0000,  0.0000,  0.0000)
   7 Pd     5.431146    4.703510   10.000000    ( 0.0000,  0.0000,  0.0000)
   8 Pd     8.146719    4.703510   10.000000    ( 0.0000,  0.0000,  0.0000)
   9 Pd     1.357786    0.783918   12.217256    ( 0.0000,  0.0000,  0.0000)
  10 Pd     4.073359    0.783918   12.217256    ( 0.0000,  0.0000,  0.0000)
  11 Pd     6.788932    0.783918   12.217256    ( 0.0000,  0.0000,  0.0000)
  12 Pd     2.715573    3.135673   12.217256    ( 0.0000,  0.0000,  0.0000)
  13 Pd     5.431146    3.135673   12.217256    ( 0.0000,  0.0000,  0.0000)
  14 Pd     8.146719    3.135673   12.217256    ( 0.0000,  0.0000,  0.0000)
  15 Pd     4.073359    5.487429   12.217256    ( 0.0000,  0.0000,  0.0000)
  16 Pd     6.788932    5.487429   12.217256    ( 0.0000,  0.0000,  0.0000)
  17 Pd     9.504505    5.487429   12.217256    ( 0.0000,  0.0000,  0.0000)
  18 Pd     0.009496    1.561589   14.466521    ( 0.0000,  0.0000,  0.0000)
  19 Pd     2.718859    1.569734   14.486875    ( 0.0000,  0.0000,  0.0000)
  20 Pd     5.422198    1.564159   14.471761    ( 0.0000,  0.0000,  0.0000)
  21 Pd     1.355390    3.920275   14.484630    ( 0.0000,  0.0000,  0.0000)
  22 Pd     4.065701    3.913681   14.471761    ( 0.0000,  0.0000,  0.0000)
  23 Pd     6.790323    3.920394   14.476910    ( 0.0000,  0.0000,  0.0000)
  24 Pd     2.715175    6.271117   14.482788    ( 0.0000,  0.0000,  0.0000)
  25 Pd     5.430484    6.282694   14.466521    ( 0.0000,  0.0000,  0.0000)
  26 Pd     8.146112    6.268929   14.484630    ( 0.0000,  0.0000,  0.0000)
  27 Pd     0.000056    0.000032   16.786828    ( 0.0000,  0.0000,  0.0000)
  28 Pd     2.729055    0.018163   16.776388    ( 0.0000,  0.0000,  0.0000)
  29 Pd     5.418678   -0.016192   16.775507    ( 0.0000,  0.0000,  0.0000)
  30 Pd     1.380257    2.354348   16.776388    ( 0.0000,  0.0000,  0.0000)
  31 Pd     4.082367    2.356955   16.792652    ( 0.0000,  0.0000,  0.0000)
  32 Pd     6.845380    2.262295   16.711827    ( 0.0000,  0.0000,  0.0000)
  33 Pd     2.695317    4.700807   16.775507    ( 0.0000,  0.0000,  0.0000)
  34 Pd     5.381896    4.797125   16.711827    ( 0.0000,  0.0000,  0.0000)
  35 Pd     8.132320    4.695197   16.791525    ( 0.0000,  0.0000,  0.0000)
  36 O      6.101772    3.522861   18.842249    ( 0.0000,  0.0000,  0.0000)
  37 H      6.119123    3.532877   17.807225    ( 0.0000,  0.0000,  0.0000)

Unit cell:
           periodic     x           y           z      points  spacing
  1. axis:    yes    8.146719    0.000000    0.000000    36     0.1960
  2. axis:    yes    4.073359    7.055265    0.000000    36     0.1960
  3. axis:    no     0.000000    0.000000   26.651768   132     0.2019

  Lengths:   8.146719   8.146719  26.651768
  Angles:   90.000000  90.000000  60.000000

Effective grid spacing dv^(1/3) = 0.2077

     iter     time        total  log10-change:  magmom
                         energy   eigst   dens
iter:   1 00:25:56  -102.927850        c          +0.0000
iter:   2 00:34:19  -108.233192        c -2.47    +0.0000
iter:   3 00:41:49  -102.907740        c -1.86    +0.0000
iter:   4 00:47:47  -102.726605        c -2.54    +0.0000
iter:   5 00:54:10  -102.725587c       c -3.41    +0.0000
iter:   6 01:00:53  -102.722643c       c -3.47    +0.0000
iter:   7 01:07:06  -102.722236c       c -3.54    +0.0000
iter:   8 01:13:14  -102.721534c       c -3.59    +0.0000
iter:   9 01:18:54  -102.721868c       c -4.13c   +0.0000

Converged after 9 iterations.

Dipole moment: (-13.013852, -7.513507, -0.584427) |e|*Ang

Total magnetic moment: (0.000000, 0.000000, 0.000000)
Local magnetic moments:
   0 Pd ( 0.000000,  0.000000,  0.000000)
   1 Pd ( 0.000000,  0.000000,  0.000000)
   2 Pd ( 0.000000,  0.000000,  0.000000)
   3 Pd ( 0.000000,  0.000000,  0.000000)
   4 Pd ( 0.000000,  0.000000,  0.000000)
   5 Pd ( 0.000000,  0.000000,  0.000000)
   6 Pd ( 0.000000,  0.000000,  0.000000)
   7 Pd ( 0.000000,  0.000000,  0.000000)
   8 Pd ( 0.000000,  0.000000,  0.000000)
   9 Pd ( 0.000000,  0.000000,  0.000000)
  10 Pd ( 0.000000,  0.000000,  0.000000)
  11 Pd ( 0.000000,  0.000000,  0.000000)
  12 Pd ( 0.000000,  0.000000,  0.000000)
  13 Pd ( 0.000000,  0.000000,  0.000000)
  14 Pd ( 0.000000,  0.000000,  0.000000)
  15 Pd ( 0.000000,  0.000000,  0.000000)
  16 Pd ( 0.000000,  0.000000,  0.000000)
  17 Pd ( 0.000000,  0.000000,  0.000000)
  18 Pd ( 0.000000,  0.000000,  0.000000)
  19 Pd ( 0.000000,  0.000000,  0.000000)
  20 Pd ( 0.000000,  0.000000,  0.000000)
  21 Pd ( 0.000000,  0.000000,  0.000000)
  22 Pd ( 0.000000,  0.000000,  0.000000)
  23 Pd ( 0.000000,  0.000000,  0.000000)
  24 Pd ( 0.000000,  0.000000,  0.000000)
  25 Pd ( 0.000000,  0.000000,  0.000000)
  26 Pd ( 0.000000,  0.000000,  0.000000)
  27 Pd ( 0.000000,  0.000000,  0.000000)
  28 Pd ( 0.000000,  0.000000,  0.000000)
  29 Pd ( 0.000000,  0.000000,  0.000000)
  30 Pd ( 0.000000,  0.000000,  0.000000)
  31 Pd ( 0.000000,  0.000000,  0.000000)
  32 Pd ( 0.000000,  0.000000,  0.000000)
  33 Pd ( 0.000000,  0.000000,  0.000000)
  34 Pd ( 0.000000,  0.000000,  0.000000)
  35 Pd ( 0.000000,  0.000000,  0.000000)
  36 O  ( 0.000000,  0.000000,  0.000000)
  37 H  ( 0.000000,  0.000000, -0.000000)

Energy contributions relative to reference atoms: (reference = -4942243.008314)

Kinetic:       -1932.061955
Potential:     +1695.748068
External:        +0.000000
XC:            +131.964365
Entropy (-ST):   -2.507533
Local:           +2.881420
SIC:             +0.000000
--------------------------
Free energy:   -103.975635
Extrapolated:  -102.721868

Spin contamination: 0.000000 electrons
Showing only first 2 kpts
                      Up                     Down
 Kpt  Band  Eigenvalues  Occupancy  Eigenvalues  Occupancy
  0   289     -6.50630    0.93858     -6.50630    0.93858
  0   290     -6.50179    0.93593     -6.50179    0.93593
  0   291     -6.49786    0.93353     -6.49786    0.93353
  0   292     -6.47524    0.91804     -6.47524    0.91804

  1   289     -6.31029    0.68277     -6.31029    0.68277
  1   290     -6.30171    0.66391     -6.30171    0.66391
  1   291     -6.22631    0.48170     -6.22631    0.48170
  1   292     -6.18945    0.39129     -6.18945    0.39129


Fermi level: -6.23364

No gap
No difference between direct/indirect transitions

Forces in eV/Ang:
  0 Pd   -0.01441   -0.00832   -0.48640
  1 Pd    0.01147   -0.00704   -0.48924
  2 Pd    0.00899   -0.01410   -0.49103
  3 Pd   -0.00036    0.01346   -0.48924
  4 Pd    0.00777    0.00449   -0.49040
  5 Pd   -0.00779    0.00627   -0.49182
  6 Pd   -0.00772    0.01484   -0.49103
  7 Pd    0.00153   -0.00988   -0.49182
  8 Pd    0.00756    0.00437   -0.49546
  9 Pd    0.03771    0.02177    0.41084
 10 Pd   -0.03457   -0.01252    0.46847
 11 Pd   -0.00703   -0.00867    0.45761
 12 Pd   -0.02813   -0.02368    0.46847
 13 Pd    0.01671    0.00965    0.47295
 14 Pd    0.00516    0.01889    0.46266
 15 Pd   -0.01103   -0.00176    0.45761
 16 Pd    0.01893   -0.00498    0.46266
 17 Pd   -0.01034   -0.00597    0.50767
 18 Pd   -0.05391    0.03581    0.08287
 19 Pd    0.03067    0.01771    0.03999
 20 Pd    0.05507   -0.00627    0.05767
 21 Pd   -0.04316    0.01166    0.03293
 22 Pd    0.02210    0.05083    0.05768
 23 Pd   -0.03462   -0.01999    0.01165
 24 Pd    0.01533    0.00885    0.06462
 25 Pd    0.00405   -0.06459    0.08287
 26 Pd   -0.01148   -0.04320    0.03293
 27 Pd    0.01828    0.01055    0.00797
 28 Pd   -0.04045   -0.01430   -0.00283
 29 Pd    0.02806    0.00352    0.00116
 30 Pd   -0.03261   -0.02788   -0.00283
 31 Pd    0.13869    0.08007    0.07547
 32 Pd   -0.01280   -0.00539   -0.10826
 33 Pd    0.01708    0.02254    0.00116
 34 Pd   -0.01107   -0.00839   -0.10826
 35 Pd   -0.09354   -0.05400    0.06990
 36 O    -0.07559   -0.04364    0.19148
 37 H     0.09095    0.05250   -0.05272

System changes: positions 

Initializing position-dependent things.

Density initialized from wave functions
                                           
                                           
                                           
                                           
                                           
                        O                  
                                           
                Pd     PH     Pd           
                  Pd                       
            Pd   Pd     PPd    Pd          
       Pd    PPd   PPd    Pd               
                                           
        Pd     Pd   PPd    Pd    Pd        
                                           
                Pd    Pd     Pd            
           Pd    Pd     Pd                 
                Pd     Pd     Pd           
            Pd    Pd     Pd                
       Pd     Pd    Pd                     
                                           
                                           
                                           
                                           

Atomic positions and initial magnetic moments

Positions:
   0 Pd     0.000000    0.000000   10.000000    ( 0.0000,  0.0000,  0.0000)
   1 Pd     2.715573    0.000000   10.000000    ( 0.0000,  0.0000,  0.0000)
   2 Pd     5.431146    0.000000   10.000000    ( 0.0000,  0.0000,  0.0000)
   3 Pd     1.357786    2.351755   10.000000    ( 0.0000,  0.0000,  0.0000)
   4 Pd     4.073359    2.351755   10.000000    ( 0.0000,  0.0000,  0.0000)
   5 Pd     6.788932    2.351755   10.000000    ( 0.0000,  0.0000,  0.0000)
   6 Pd     2.715573    4.703510   10.000000    ( 0.0000,  0.0000,  0.0000)
   7 Pd     5.431146    4.703510   10.000000    ( 0.0000,  0.0000,  0.0000)
   8 Pd     8.146719    4.703510   10.000000    ( 0.0000,  0.0000,  0.0000)
   9 Pd     1.357786    0.783918   12.217256    ( 0.0000,  0.0000,  0.0000)
  10 Pd     4.073359    0.783918   12.217256    ( 0.0000,  0.0000,  0.0000)
  11 Pd     6.788932    0.783918   12.217256    ( 0.0000,  0.0000,  0.0000)
  12 Pd     2.715573    3.135673   12.217256    ( 0.0000,  0.0000,  0.0000)
  13 Pd     5.431146    3.135673   12.217256    ( 0.0000,  0.0000,  0.0000)
  14 Pd     8.146719    3.135673   12.217256    ( 0.0000,  0.0000,  0.0000)
  15 Pd     4.073359    5.487429   12.217256    ( 0.0000,  0.0000,  0.0000)
  16 Pd     6.788932    5.487429   12.217256    ( 0.0000,  0.0000,  0.0000)
  17 Pd     9.504505    5.487429   12.217256    ( 0.0000,  0.0000,  0.0000)
  18 Pd     0.009095    1.562717   14.465538    ( 0.0000,  0.0000,  0.0000)
  19 Pd     2.723391    1.572350   14.492663    ( 0.0000,  0.0000,  0.0000)
  20 Pd     5.424221    1.562363   14.473611    ( 0.0000,  0.0000,  0.0000)
  21 Pd     1.349272    3.921559   14.489159    ( 0.0000,  0.0000,  0.0000)
  22 Pd     4.065157    3.916330   14.473612    ( 0.0000,  0.0000,  0.0000)
  23 Pd     6.786617    3.918255   14.477808    ( 0.0000,  0.0000,  0.0000)
  24 Pd     2.716992    6.272166   14.490357    ( 0.0000,  0.0000,  0.0000)
  25 Pd     5.431260    6.281781   14.465538    ( 0.0000,  0.0000,  0.0000)
  26 Pd     8.144165    6.262989   14.489159    ( 0.0000,  0.0000,  0.0000)
  27 Pd     0.001776    0.001025   16.795022    ( 0.0000,  0.0000,  0.0000)
  28 Pd     2.730796    0.023436   16.778590    ( 0.0000,  0.0000,  0.0000)
  29 Pd     5.416270   -0.022049   16.777759    ( 0.0000,  0.0000,  0.0000)
  30 Pd     1.385695    2.353219   16.778590    ( 0.0000,  0.0000,  0.0000)
  31 Pd     4.107479    2.371453   16.809058    ( 0.0000,  0.0000,  0.0000)
  32 Pd     6.844469    2.262599   16.695527    ( 0.0000,  0.0000,  0.0000)
  33 Pd     2.689041    4.701651   16.777759    ( 0.0000,  0.0000,  0.0000)
  34 Pd     5.381704    4.796184   16.695529    ( 0.0000,  0.0000,  0.0000)
  35 Pd     8.111042    4.682912   16.806798    ( 0.0000,  0.0000,  0.0000)
  36 O      6.089792    3.515945   18.854967    ( 0.0000,  0.0000,  0.0000)
  37 H      6.133036    3.540908   17.820104    ( 0.0000,  0.0000,  0.0000)

Unit cell:
           periodic     x           y           z      points  spacing
  1. axis:    yes    8.146719    0.000000    0.000000    36     0.1960
  2. axis:    yes    4.073359    7.055265    0.000000    36     0.1960
  3. axis:    no     0.000000    0.000000   26.651768   132     0.2019

  Lengths:   8.146719   8.146719  26.651768
  Angles:   90.000000  90.000000  60.000000

Effective grid spacing dv^(1/3) = 0.2077

     iter     time        total  log10-change:  magmom
                         energy   eigst   dens
iter:   1 01:45:00  -106.184233        c          +0.0000
iter:   2 01:51:26  -137.495099        c -1.93    +0.0000
iter:   3 01:58:27  -106.715118        c -1.48    +0.0000
iter:   4 02:05:32  -103.073025        c -1.98    +0.0000
iter:   5 02:11:35  -102.852371        c -2.52    +0.0000
iter:   6 02:18:57  -102.762182        c -2.67    +0.0000
iter:   7 02:28:45  -102.735611c       c -3.03    +0.0000
iter:   8 02:38:32  -102.734065c       c -3.33    +0.0000
iter:   9 02:45:33  -102.733885c       c -3.62    +0.0000
iter:  10 02:51:40  -102.730837c       c -3.64    +0.0000
iter:  11 02:57:53  -102.730862c       c -3.82    +0.0000
iter:  12 03:04:27  -102.731379c       c -4.03c   +0.0000

Converged after 12 iterations.

Dipole moment: (-13.166583, -7.601670, -0.591585) |e|*Ang

Total magnetic moment: (0.000000, 0.000000, 0.000000)
Local magnetic moments:
   0 Pd ( 0.000000,  0.000000,  0.000000)
   1 Pd ( 0.000000,  0.000000,  0.000000)
   2 Pd ( 0.000000,  0.000000,  0.000000)
   3 Pd ( 0.000000,  0.000000,  0.000000)
   4 Pd ( 0.000000,  0.000000,  0.000000)
   5 Pd ( 0.000000,  0.000000,  0.000000)
   6 Pd ( 0.000000,  0.000000,  0.000000)
   7 Pd ( 0.000000,  0.000000,  0.000000)
   8 Pd ( 0.000000,  0.000000,  0.000000)
   9 Pd ( 0.000000,  0.000000,  0.000000)
  10 Pd ( 0.000000,  0.000000,  0.000000)
  11 Pd ( 0.000000,  0.000000,  0.000000)
  12 Pd ( 0.000000,  0.000000,  0.000000)
  13 Pd ( 0.000000,  0.000000,  0.000000)
  14 Pd ( 0.000000,  0.000000,  0.000000)
  15 Pd ( 0.000000,  0.000000,  0.000000)
  16 Pd ( 0.000000,  0.000000,  0.000000)
  17 Pd ( 0.000000,  0.000000,  0.000000)
  18 Pd ( 0.000000,  0.000000,  0.000000)
  19 Pd ( 0.000000,  0.000000,  0.000000)
  20 Pd ( 0.000000,  0.000000,  0.000000)
  21 Pd ( 0.000000,  0.000000,  0.000000)
  22 Pd ( 0.000000,  0.000000,  0.000000)
  23 Pd ( 0.000000,  0.000000,  0.000000)
  24 Pd ( 0.000000,  0.000000,  0.000000)
  25 Pd ( 0.000000,  0.000000,  0.000000)
  26 Pd ( 0.000000,  0.000000,  0.000000)
  27 Pd ( 0.000000,  0.000000,  0.000000)
  28 Pd ( 0.000000,  0.000000,  0.000000)
  29 Pd ( 0.000000,  0.000000,  0.000000)
  30 Pd ( 0.000000,  0.000000,  0.000000)
  31 Pd ( 0.000000,  0.000000,  0.000000)
  32 Pd ( 0.000000,  0.000000,  0.000000)
  33 Pd ( 0.000000,  0.000000,  0.000000)
  34 Pd ( 0.000000,  0.000000,  0.000000)
  35 Pd ( 0.000000,  0.000000,  0.000000)
  36 O  ( 0.000000,  0.000000,  0.000000)
  37 H  ( 0.000000,  0.000000, -0.000000)

Energy contributions relative to reference atoms: (reference = -4942243.008314)

Kinetic:       -1932.648204
Potential:     +1696.158212
External:        +0.000000
XC:            +132.139910
Entropy (-ST):   -2.509031
Local:           +2.873219
SIC:             +0.000000
--------------------------
Free energy:   -103.985894
Extrapolated:  -102.731379

Spin contamination: 0.000000 electrons
Showing only first 2 kpts
                      Up                     Down
 Kpt  Band  Eigenvalues  Occupancy  Eigenvalues  Occupancy
  0   289     -6.50387    0.93787     -6.50387    0.93787
  0   290     -6.50044    0.93584     -6.50044    0.93584
  0   291     -6.49562    0.93288     -6.49562    0.93288
  0   292     -6.47044    0.91529     -6.47044    0.91529

  1   289     -6.31060    0.68603     -6.31060    0.68603
  1   290     -6.29921    0.66100     -6.29921    0.66100
  1   291     -6.22579    0.48338     -6.22579    0.48338
  1   292     -6.18857    0.39206     -6.18857    0.39206


Fermi level: -6.23244

No gap
No difference between direct/indirect transitions

Forces in eV/Ang:
  0 Pd   -0.01438   -0.00830   -0.44566
  1 Pd    0.01232   -0.00638   -0.44652
  2 Pd    0.00799   -0.01297   -0.44673
  3 Pd    0.00063    0.01386   -0.44652
  4 Pd    0.00891    0.00515   -0.44901
  5 Pd   -0.00868    0.00600   -0.44887
  6 Pd   -0.00724    0.01340   -0.44673
  7 Pd    0.00085   -0.01051   -0.44887
  8 Pd    0.00762    0.00440   -0.45269
  9 Pd    0.04373    0.02525    0.43376
 10 Pd   -0.03443   -0.01532    0.49572
 11 Pd   -0.00855   -0.02052    0.46057
 12 Pd   -0.03048   -0.02216    0.49572
 13 Pd    0.00357    0.00206    0.46902
 14 Pd    0.00841    0.02405    0.46093
[...]
iter:   1 07:11:56  -104.407687        c          -0.0000
iter:   2 07:18:53  -123.467097        c -2.07    -0.0000
iter:   3 07:25:59  -103.243326        c -1.65    -0.0000
iter:   4 07:31:55  -103.208763        c -2.34    -0.0000
iter:   5 07:37:51  -103.009729c       c -2.30    -0.0000
iter:   6 07:44:06  -102.788656        c -2.40    +0.0000
iter:   7 07:50:41  -102.862594c       c -2.63    +0.0000
iter:   8 07:56:49  -102.678868c       c -2.46    +0.0000
iter:   9 08:03:02  -102.666052c       c -3.11    +0.0000
iter:  10 08:10:13  -102.661399c       c -3.23    +0.0000
iter:  11 08:16:56  -102.661853c       c -3.54    +0.0000
iter:  12 08:22:59  -102.660761c       c -3.55    +0.0000
iter:  13 08:29:34  -102.662139c       c -3.72    +0.0000
iter:  14 08:36:12  -102.659598c       c -3.51    +0.0000
iter:  15 08:44:01  -102.659030c       c -3.52    +0.0000
iter:  16 08:50:08  -102.658809c       c -3.93    +0.0000
iter:  17 08:55:50  -102.658584c       c -4.23c   +0.0000

Converged after 17 iterations.

Dipole moment: (-13.670862, -7.892730, -0.495113) |e|*Ang

Total magnetic moment: (0.000000, 0.000000, 0.000000)
Local magnetic moments:
   0 Pd ( 0.000000,  0.000000,  0.000000)
   1 Pd ( 0.000000,  0.000000,  0.000000)
   2 Pd ( 0.000000,  0.000000,  0.000000)
   3 Pd ( 0.000000,  0.000000,  0.000000)
   4 Pd ( 0.000000,  0.000000,  0.000000)
   5 Pd ( 0.000000,  0.000000,  0.000000)
   6 Pd ( 0.000000,  0.000000,  0.000000)
   7 Pd ( 0.000000,  0.000000,  0.000000)
   8 Pd ( 0.000000,  0.000000,  0.000000)
   9 Pd ( 0.000000,  0.000000,  0.000000)
  10 Pd ( 0.000000,  0.000000,  0.000000)
  11 Pd ( 0.000000,  0.000000,  0.000000)
  12 Pd ( 0.000000,  0.000000,  0.000000)
  13 Pd ( 0.000000,  0.000000,  0.000000)
  14 Pd ( 0.000000,  0.000000,  0.000000)
  15 Pd ( 0.000000,  0.000000,  0.000000)
  16 Pd ( 0.000000,  0.000000,  0.000000)
  17 Pd ( 0.000000,  0.000000,  0.000000)
  18 Pd ( 0.000000,  0.000000,  0.000000)
  19 Pd ( 0.000000,  0.000000,  0.000000)
  20 Pd ( 0.000000,  0.000000,  0.000000)
  21 Pd ( 0.000000,  0.000000,  0.000000)
  22 Pd ( 0.000000,  0.000000,  0.000000)
  23 Pd ( 0.000000,  0.000000,  0.000000)
  24 Pd ( 0.000000,  0.000000,  0.000000)
  25 Pd ( 0.000000,  0.000000,  0.000000)
  26 Pd ( 0.000000,  0.000000,  0.000000)
  27 Pd ( 0.000000,  0.000000,  0.000000)
  28 Pd ( 0.000000,  0.000000,  0.000000)
  29 Pd ( 0.000000,  0.000000,  0.000000)
  30 Pd ( 0.000000,  0.000000,  0.000000)
  31 Pd ( 0.000000,  0.000000, -0.000000)
  32 Pd ( 0.000000,  0.000000,  0.000000)
  33 Pd ( 0.000000,  0.000000,  0.000000)
  34 Pd ( 0.000000,  0.000000,  0.000000)
  35 Pd ( 0.000000,  0.000000,  0.000000)
  36 O  ( 0.000000,  0.000000,  0.000000)
  37 H  ( 0.000000,  0.000000, -0.000000)

Energy contributions relative to reference atoms: (reference = -4942243.008314)

Kinetic:       -1957.305519
Potential:     +1717.120635
External:        +0.000000
XC:            +135.977071
Entropy (-ST):   -2.500424
Local:           +2.799441
SIC:             +0.000000
--------------------------
Free energy:   -103.908796
Extrapolated:  -102.658584

Spin contamination: 0.000000 electrons
Showing only first 2 kpts
                      Up                     Down
 Kpt  Band  Eigenvalues  Occupancy  Eigenvalues  Occupancy
  0   289     -6.44092    0.94167     -6.44092    0.94167
  0   290     -6.41682    0.92693     -6.41682    0.92693
  0   291     -6.41399    0.92499     -6.41399    0.92499
  0   292     -6.38422    0.90155     -6.38422    0.90155

  1   289     -6.24630    0.69748     -6.24630    0.69748
  1   290     -6.21214    0.62099     -6.21214    0.62099
  1   291     -6.14910    0.46589     -6.14910    0.46589
  1   292     -6.12512    0.40698     -6.12512    0.40698


Fermi level: -6.16277

No gap
No difference between direct/indirect transitions

Forces in eV/Ang:
  0 Pd   -0.02271   -0.01311   -0.49848
  1 Pd    0.02200   -0.01120   -0.46109
  2 Pd    0.00563   -0.01841   -0.50786
  3 Pd    0.00130    0.02466   -0.46110
  4 Pd    0.02577    0.01488   -0.49589
  5 Pd   -0.01695   -0.00084   -0.50405
  6 Pd   -0.01313    0.01408   -0.50786
  7 Pd   -0.00921   -0.01425   -0.50405
  8 Pd    0.02184    0.01261   -0.51040
  9 Pd    0.11060    0.06384    0.55035
 10 Pd   -0.10345   -0.05423    0.69852
 11 Pd    0.02444   -0.02762    0.62108
 12 Pd   -0.09868   -0.06247    0.69853
 13 Pd   -0.15059   -0.08694    0.47065
 14 Pd    0.12639   -0.02067    0.50550
 15 Pd   -0.01169    0.03496    0.62109
 16 Pd    0.04529    0.11979    0.50552
 17 Pd   -0.00711   -0.00410    0.79431
 18 Pd   -0.21728    0.11221   -0.26312
 19 Pd   -0.19536   -0.11279   -0.31328
 20 Pd    0.16493    0.26998   -0.14155
 21 Pd    0.03039   -0.01783   -0.30034
 22 Pd    0.31629    0.00785   -0.14153
 23 Pd   -0.00853   -0.00492    0.37962
 24 Pd   -0.01432   -0.00827   -0.27714
 25 Pd   -0.01147   -0.24430   -0.26309
 26 Pd   -0.00025    0.03523   -0.30034
 27 Pd   -0.12849   -0.07421   -0.04007
 28 Pd    0.04072   -0.17853    0.18075
 29 Pd    0.04606    0.08118    0.10254
 30 Pd   -0.13425    0.12453    0.18075
 31 Pd   -0.51619   -0.29804    0.21809
 32 Pd    0.07794    0.39034    0.53557
 33 Pd    0.09333   -0.00071    0.10254
 34 Pd    0.37700   -0.12765    0.53559
 35 Pd    0.31481    0.18175   -0.45445
 36 O     0.40014    0.23097   -3.51054
 37 H    -0.68235   -0.39387    2.45684

System changes: positions 

Initializing position-dependent things.

Density initialized from wave functions
                                           
                                           
                                           
                                           
                                           
                        O                  
                         H                 
                Pd     Pd     Pd           
                   Pd                      
            Pd   Pd     PPd    Pd          
       Pd    PPd   PPd                     
                          Pd               
        Pd     Pd   PPd    Pd    Pd        
                                           
                Pd    Pd     Pd            
           Pd    Pd     Pd                 
                Pd     Pd     Pd           
            Pd    Pd     Pd                
       Pd     Pd    Pd                     
                                           
                                           
                                           
                                           

Atomic positions and initial magnetic moments

Positions:
   0 Pd     0.000000    0.000000   10.000000    ( 0.0000,  0.0000,  0.0000)
   1 Pd     2.715573    0.000000   10.000000    ( 0.0000,  0.0000,  0.0000)
   2 Pd     5.431146    0.000000   10.000000    ( 0.0000,  0.0000,  0.0000)
   3 Pd     1.357786    2.351755   10.000000    ( 0.0000,  0.0000,  0.0000)
   4 Pd     4.073359    2.351755   10.000000    ( 0.0000,  0.0000,  0.0000)
   5 Pd     6.788932    2.351755   10.000000    ( 0.0000,  0.0000,  0.0000)
   6 Pd     2.715573    4.703510   10.000000    ( 0.0000,  0.0000,  0.0000)
   7 Pd     5.431146    4.703510   10.000000    ( 0.0000,  0.0000,  0.0000)
   8 Pd     8.146719    4.703510   10.000000    ( 0.0000,  0.0000,  0.0000)
   9 Pd     1.357786    0.783918   12.217256    ( 0.0000,  0.0000,  0.0000)
  10 Pd     4.073359    0.783918   12.217256    ( 0.0000,  0.0000,  0.0000)
  11 Pd     6.788932    0.783918   12.217256    ( 0.0000,  0.0000,  0.0000)
  12 Pd     2.715573    3.135673   12.217256    ( 0.0000,  0.0000,  0.0000)
  13 Pd     5.431146    3.135673   12.217256    ( 0.0000,  0.0000,  0.0000)
  14 Pd     8.146719    3.135673   12.217256    ( 0.0000,  0.0000,  0.0000)
  15 Pd     4.073359    5.487429   12.217256    ( 0.0000,  0.0000,  0.0000)
  16 Pd     6.788932    5.487429   12.217256    ( 0.0000,  0.0000,  0.0000)
  17 Pd     9.504505    5.487429   12.217256    ( 0.0000,  0.0000,  0.0000)
  18 Pd     0.033795    1.555529   14.481071    ( 0.0000,  0.0000,  0.0000)
  19 Pd     2.749691    1.587533   14.540715    ( 0.0000,  0.0000,  0.0000)
  20 Pd     5.407232    1.537299   14.484953    ( 0.0000,  0.0000,  0.0000)
  21 Pd     1.334270    3.925770   14.527611    ( 0.0000,  0.0000,  0.0000)
  22 Pd     4.034958    3.914149   14.484955    ( 0.0000,  0.0000,  0.0000)
  23 Pd     6.776923    3.912657   14.443707    ( 0.0000,  0.0000,  0.0000)
  24 Pd     2.721578    6.274812   14.519757    ( 0.0000,  0.0000,  0.0000)
  25 Pd     5.437386    6.306765   14.481074    ( 0.0000,  0.0000,  0.0000)
  26 Pd     8.140312    6.247890   14.527612    ( 0.0000,  0.0000,  0.0000)
  27 Pd     0.014040    0.008105   16.820033    ( 0.0000,  0.0000,  0.0000)
  28 Pd     2.734054    0.040510   16.782796    ( 0.0000,  0.0000,  0.0000)
  29 Pd     5.406529   -0.036217   16.791070    ( 0.0000,  0.0000,  0.0000)
  30 Pd     1.402110    2.347502   16.782795    ( 0.0000,  0.0000,  0.0000)
  31 Pd     4.170093    2.407603   16.908853    ( 0.0000,  0.0000,  0.0000)
  32 Pd     6.829047    2.252346   16.665178    ( 0.0000,  0.0000,  0.0000)
  33 Pd     2.671902    4.700297   16.791070    ( 0.0000,  0.0000,  0.0000)
  34 Pd     5.365116    4.787951   16.665189    ( 0.0000,  0.0000,  0.0000)
  35 Pd     8.078406    4.664068   16.882636    ( 0.0000,  0.0000,  0.0000)
  36 O      5.954499    3.437849   18.890924    ( 0.0000,  0.0000,  0.0000)
  37 H      6.306543    3.641070   17.856451    ( 0.0000,  0.0000,  0.0000)

Unit cell:
           periodic     x           y           z      points  spacing
  1. axis:    yes    8.146719    0.000000    0.000000    36     0.1960
  2. axis:    yes    4.073359    7.055265    0.000000    36     0.1960
  3. axis:    no     0.000000    0.000000   26.651768   132     0.2019

  Lengths:   8.146719   8.146719  26.651768
  Angles:   90.000000  90.000000  60.000000

Effective grid spacing dv^(1/3) = 0.2077

     iter     time        total  log10-change:  magmom
                         energy   eigst   dens
iter:   1 09:22:33  -102.885214        c          +0.0000
iter:   2 09:29:09  -103.055767        c -2.78    +0.0000
iter:   3 09:37:33  -103.992680        c -2.41    +0.0000
iter:   4 09:43:38  -102.819512        c -2.12    +0.0000
iter:   5 09:50:24  -102.816210        c -2.94    +0.0000
iter:   6 09:57:56  -102.806240c       c -2.95    +0.0000
iter:   7 10:05:18  -102.791002c       c -3.04    +0.0000
iter:   8 10:11:38  -102.786135c       c -3.25    +0.0000
iter:   9 10:17:55  -102.784818c       c -3.56    +0.0000
iter:  10 10:25:38  -102.785211c       c -3.66    +0.0000
iter:  11 10:31:50  -102.784773c       c -3.85    +0.0000
iter:  12 10:39:14  -102.784611c       c -3.94    +0.0000
iter:  13 10:45:32  -102.784860c       c -3.74    +0.0000
iter:  14 10:51:34  -102.784698c       c -4.21c   +0.0000

Converged after 14 iterations.

Dipole moment: (-13.490226, -7.788490, -0.545406) |e|*Ang

Total magnetic moment: (0.000000, 0.000000, 0.000000)
Local magnetic moments:
   0 Pd ( 0.000000,  0.000000,  0.000000)
   1 Pd ( 0.000000,  0.000000,  0.000000)
   2 Pd ( 0.000000,  0.000000,  0.000000)
   3 Pd ( 0.000000,  0.000000,  0.000000)
   4 Pd ( 0.000000,  0.000000,  0.000000)
   5 Pd ( 0.000000,  0.000000,  0.000000)
   6 Pd ( 0.000000,  0.000000,  0.000000)
   7 Pd ( 0.000000,  0.000000,  0.000000)
   8 Pd ( 0.000000,  0.000000,  0.000000)
   9 Pd ( 0.000000,  0.000000,  0.000000)
  10 Pd ( 0.000000,  0.000000,  0.000000)
  11 Pd ( 0.000000,  0.000000,  0.000000)
  12 Pd ( 0.000000,  0.000000,  0.000000)
  13 Pd ( 0.000000,  0.000000,  0.000000)
  14 Pd ( 0.000000,  0.000000,  0.000000)
  15 Pd ( 0.000000,  0.000000,  0.000000)
  16 Pd ( 0.000000,  0.000000,  0.000000)
  17 Pd ( 0.000000,  0.000000,  0.000000)
  18 Pd ( 0.000000,  0.000000,  0.000000)
  19 Pd ( 0.000000,  0.000000,  0.000000)
  20 Pd ( 0.000000,  0.000000,  0.000000)
  21 Pd ( 0.000000,  0.000000,  0.000000)
  22 Pd ( 0.000000,  0.000000,  0.000000)
  23 Pd ( 0.000000,  0.000000,  0.000000)
  24 Pd ( 0.000000,  0.000000,  0.000000)
  25 Pd ( 0.000000,  0.000000,  0.000000)
  26 Pd ( 0.000000,  0.000000,  0.000000)
  27 Pd ( 0.000000,  0.000000,  0.000000)
  28 Pd ( 0.000000,  0.000000,  0.000000)
  29 Pd ( 0.000000,  0.000000,  0.000000)
  30 Pd ( 0.000000,  0.000000,  0.000000)
  31 Pd ( 0.000000,  0.000000,  0.000000)
  32 Pd ( 0.000000,  0.000000,  0.000000)
  33 Pd ( 0.000000,  0.000000,  0.000000)
  34 Pd ( 0.000000,  0.000000,  0.000000)
  35 Pd ( 0.000000,  0.000000,  0.000000)
  36 O  ( 0.000000,  0.000000,  0.000000)
  37 H  ( 0.000000,  0.000000, -0.000000)

Energy contributions relative to reference atoms: (reference = -4942243.008314)

Kinetic:       -1949.326857
Potential:     +1710.529261
External:        +0.000000
XC:            +134.370772
Entropy (-ST):   -2.508096
Local:           +2.896175
SIC:             +0.000000
--------------------------
Free energy:   -104.038746
Extrapolated:  -102.784698

Spin contamination: 0.000000 electrons
Showing only first 2 kpts
                      Up                     Down
 Kpt  Band  Eigenvalues  Occupancy  Eigenvalues  Occupancy
  0   289     -6.49498    0.94599     -6.49498    0.94599
  0   290     -6.46981    0.93159     -6.46981    0.93159
  0   291     -6.46461    0.92820     -6.46461    0.92820
  0   292     -6.43700    0.90749     -6.43700    0.90749

  1   289     -6.29106    0.69507     -6.29106    0.69507
  1   290     -6.26469    0.63650     -6.26469    0.63650
  1   291     -6.19755    0.47223     -6.19755    0.47223
  1   292     -6.16825    0.40029     -6.16825    0.40029


Fermi level: -6.20867

No gap
No difference between direct/indirect transitions

Forces in eV/Ang:
  0 Pd   -0.01906   -0.01100   -0.50459
  1 Pd    0.01984   -0.00826   -0.47933
  2 Pd    0.00395   -0.01486   -0.51079
  3 Pd    0.00277    0.02131   -0.47933
  4 Pd    0.01947    0.01124   -0.50679
  5 Pd   -0.01472    0.00152   -0.50855
  6 Pd   -0.01089    0.01086   -0.51079
  7 Pd   -0.00604   -0.01351   -0.50855
  8 Pd    0.01712    0.00989   -0.51364
  9 Pd    0.08937    0.05159    0.50818
 10 Pd   -0.08202   -0.04010    0.62546
 11 Pd    0.01584   -0.02446    0.57044
 12 Pd   -0.07574   -0.05098    0.62547
 13 Pd   -0.09111   -0.05260    0.48970
 14 Pd    0.08490   -0.00679    0.50110
 15 Pd   -0.01326    0.02594    0.57045
 16 Pd    0.03657    0.07692    0.50111
 17 Pd   -0.00753   -0.00435    0.70541
 18 Pd   -0.17473    0.11107   -0.16101
 19 Pd   -0.09939   -0.05738   -0.21558
 20 Pd    0.12642    0.20595   -0.10289
 21 Pd   -0.02766    0.00159   -0.19856
 22 Pd    0.24157    0.00651   -0.10288
 23 Pd   -0.02262   -0.01306    0.23261
 24 Pd   -0.00857   -0.00495   -0.20739
 25 Pd    0.00883   -0.20688   -0.16099
 26 Pd   -0.01245   -0.02475   -0.19856
 27 Pd   -0.07306   -0.04220    0.00678
 28 Pd    0.01245   -0.14813    0.15447
 29 Pd    0.03827    0.04476    0.11918
 30 Pd   -0.12205    0.08484    0.15448
 31 Pd   -0.35524   -0.20511    0.12705
 32 Pd    0.01864    0.21404    0.34138
 33 Pd    0.05790    0.01077    0.11918
 34 Pd    0.19468   -0.09087    0.34141
 35 Pd    0.23222    0.13407   -0.26872
 36 O    -0.22543   -0.13009   -2.16908
 37 H     0.20970    0.12106    1.63168

System changes: positions 

Initializing position-dependent things.

Density initialized from wave functions
                                           
                                           
                                           
                                           
                                           
                       O                   
                         H                 
                Pd     Pd     Pd           
                   Pd                      
            Pd   Pd     PPd    Pd          
       Pd    PPd   PPd                     
                          Pd               
        Pd     Pd   PPd    Pd    Pd        
                                           
                Pd    Pd     Pd            
           Pd    Pd     Pd                 
                Pd     Pd     Pd           
            Pd    Pd     Pd                
       Pd     Pd    Pd                     
                                           
                                           
                                           
                                           

Atomic positions and initial magnetic moments

Positions:
   0 Pd     0.000000    0.000000   10.000000    ( 0.0000,  0.0000,  0.0000)
   1 Pd     2.715573    0.000000   10.000000    ( 0.0000,  0.0000,  0.0000)
   2 Pd     5.431146    0.000000   10.000000    ( 0.0000,  0.0000,  0.0000)
   3 Pd     1.357786    2.351755   10.000000    ( 0.0000,  0.0000,  0.0000)
   4 Pd     4.073359    2.351755   10.000000    ( 0.0000,  0.0000,  0.0000)
   5 Pd     6.788932    2.351755   10.000000    ( 0.0000,  0.0000,  0.0000)
   6 Pd     2.715573    4.703510   10.000000    ( 0.0000,  0.0000,  0.0000)
   7 Pd     5.431146    4.703510   10.000000    ( 0.0000,  0.0000,  0.0000)
   8 Pd     8.146719    4.703510   10.000000    ( 0.0000,  0.0000,  0.0000)
   9 Pd     1.357786    0.783918   12.217256    ( 0.0000,  0.0000,  0.0000)
  10 Pd     4.073359    0.783918   12.217256    ( 0.0000,  0.0000,  0.0000)
  11 Pd     6.788932    0.783918   12.217256    ( 0.0000,  0.0000,  0.0000)
  12 Pd     2.715573    3.135673   12.217256    ( 0.0000,  0.0000,  0.0000)
  13 Pd     5.431146    3.135673   12.217256    ( 0.0000,  0.0000,  0.0000)
  14 Pd     8.146719    3.135673   12.217256    ( 0.0000,  0.0000,  0.0000)
  15 Pd     4.073359    5.487429   12.217256    ( 0.0000,  0.0000,  0.0000)
  16 Pd     6.788932    5.487429   12.217256    ( 0.0000,  0.0000,  0.0000)
  17 Pd     9.504505    5.487429   12.217256    ( 0.0000,  0.0000,  0.0000)
  18 Pd     0.029093    1.561777   14.490140    ( 0.0000,  0.0000,  0.0000)
  19 Pd     2.754052    1.590051   14.548840    ( 0.0000,  0.0000,  0.0000)
  20 Pd     5.410577    1.539320   14.488408    ( 0.0000,  0.0000,  0.0000)
  21 Pd     1.328978    3.927241   14.532041    ( 0.0000,  0.0000,  0.0000)
  22 Pd     4.038382    3.916036   14.488411    ( 0.0000,  0.0000,  0.0000)
  23 Pd     6.772034    3.909835   14.442366    ( 0.0000,  0.0000,  0.0000)
  24 Pd     2.722600    6.275402   14.519184    ( 0.0000,  0.0000,  0.0000)
  25 Pd     5.440446    6.299567   14.490145    ( 0.0000,  0.0000,  0.0000)
  26 Pd     8.138941    6.242571   14.532042    ( 0.0000,  0.0000,  0.0000)
  27 Pd     0.015646    0.009031   16.819838    ( 0.0000,  0.0000,  0.0000)
  28 Pd     2.728652    0.030020   16.789509    ( 0.0000,  0.0000,  0.0000)
  29 Pd     5.410943   -0.032002   16.800343    ( 0.0000,  0.0000,  0.0000)
  30 Pd     1.390325    2.348069   16.789508    ( 0.0000,  0.0000,  0.0000)
  31 Pd     4.159317    2.401381   16.952018    ( 0.0000,  0.0000,  0.0000)
  32 Pd     6.826540    2.255555   16.675490    ( 0.0000,  0.0000,  0.0000)
  33 Pd     2.677759    4.702012   16.800343    ( 0.0000,  0.0000,  0.0000)
  34 Pd     5.366642    4.784174   16.675506    ( 0.0000,  0.0000,  0.0000)
  35 Pd     8.096470    4.674497   16.887275    ( 0.0000,  0.0000,  0.0000)
  36 O      5.888834    3.399947   18.861945    ( 0.0000,  0.0000,  0.0000)
  37 H      6.393422    3.691223   17.873284    ( 0.0000,  0.0000,  0.0000)

Unit cell:
           periodic     x           y           z      points  spacing
  1. axis:    yes    8.146719    0.000000    0.000000    36     0.1960
  2. axis:    yes    4.073359    7.055265    0.000000    36     0.1960
  3. axis:    no     0.000000    0.000000   26.651768   132     0.2019

  Lengths:   8.146719   8.146719  26.651768
  Angles:   90.000000  90.000000  60.000000

Effective grid spacing dv^(1/3) = 0.2077

     iter     time        total  log10-change:  magmom
                         energy   eigst   dens
iter:   1 11:21:06  -103.952334        c          +0.0000
iter:   2 11:27:13  -119.664815        c -2.16    +0.0000
iter:   3 11:34:18  -104.330510        c -1.70    +0.0000
iter:   4 11:43:04  -103.264183        c -2.12    +0.0000
