
  ___ ___ ___ _ _ _  
 |   |   |_  | | | | 
 | | | | | . | | | | 
 |__ |  _|___|_____|  25.7.0
 |___|_|             

User:   qchem@IFEOLUWA
Date:   Tue Oct  7 11:26:28 2025
Arch:   x86_64
Pid:    2444
CWD:    /home/qchem/projects/gpaw_calculations
Python: 3.12.3
gpaw:   /home/qchem/gpaw-venv/lib/python3.12/site-packages/gpaw
_gpaw:  /home/qchem/gpaw-venv/lib/python3.12/site-packages/
        _gpaw.cpython-312-x86_64-linux-gnu.so
ase:    /home/qchem/gpaw-venv/lib/python3.12/site-packages/ase (version 3.26.0)
numpy:  /home/qchem/gpaw-venv/lib/python3.12/site-packages/numpy (version 2.3.3)
scipy:  /home/qchem/gpaw-venv/lib/python3.12/site-packages/scipy (version 1.16.2)
libxc:  5.2.3
units:  Angstrom and eV
cores: 4
OpenMP: False
OMP_NUM_THREADS: 1

Input parameters:
  basis: {H: szp(dzp),
          O: szp(dzp),
          Pd: sz(dzp)}
  kpts: {density: 2.0,
         gamma: True}
  mixer: {backend: pulay,
          beta: 0.05,
          method: difference,
          nmaxold: 10,
          weight: 100.0}
  mode: {interpolation: 3,
         name: lcao}
  occupations: {name: fermi-dirac,
                width: 0.1}
  spinpol: True
  symmetry: {point_group: False}
  xc: PBE

System changes: positions, numbers, cell, pbc, initial_charges, initial_magmoms 

Initialize ...

species:
  Pd:
    name: Palladium
    id: c3f348c122b85aed3f99c4295cac773c
    Z: 46.0
    valence: 16
    core: 30
    charge: 0.0
    file: /home/qchem/gpaw-venv/lib/python3.12/site-packages/gpaw_data/setups/Pd.PBE.gz
    compensation charges: {type: gauss,
                           rc: 0.38,
                           lmax: 2}
    cutoffs: {filter: 2.38,
              core: 2.28}
    projectors:
      #              energy  rcut
      - 5s(0.00)    -3.315   1.228
      - 4p(6.00)   -51.209   1.360
      - 5p(0.00)    -0.314   1.360
      - 4d(10.00)    -4.047   1.228
      -  s          23.896   1.228
      -  d          23.165   1.228
  
    # LCAO basis set for Pd:
    #   Name: sz(dzp)
    #   File: /home/qchem/gpaw-venv/lib/python3.12/site-packages/gpaw_data/setups/Pd.dzp.basis.gz
    #   Number of radial functions: 4
    #   Number of spherical harmonics: 12
    #     l=0, rc=10.0312 Bohr: 5s-sz confined orbital
    #     l=1, rc=3.5312 Bohr: 4p-sz confined orbital
    #     l=1, rc=16.0000 Bohr: 5p-sz confined orbital
    #     l=2, rc=6.2031 Bohr: 4d-sz confined orbital
    #   Number of RI-basis functions 0

  O:
    name: Oxygen
    id: 32ecd46bf208036f09c70b0ec9a88b78
    Z: 8.0
    valence: 6
    core: 2
    charge: 0.0
    file: /home/qchem/gpaw-venv/lib/python3.12/site-packages/gpaw_data/setups/O.PBE.gz
    compensation charges: {type: gauss,
                           rc: 0.21,
                           lmax: 2}
    cutoffs: {filter: 1.17,
              core: 0.83}
    projectors:
      #              energy  rcut
      - 2s(2.00)   -23.961   0.688
      - 2p(4.00)    -9.029   0.598
      -  s           3.251   0.688
      -  p          18.182   0.598
      -  d           0.000   0.619
  
    # LCAO basis set for O:
    #   Name: szp(dzp)
    #   File: /home/qchem/gpaw-venv/lib/python3.12/site-packages/gpaw_data/setups/O.dzp.basis.gz
    #   Number of radial functions: 3
    #   Number of spherical harmonics: 9
    #     l=0, rc=4.3438 Bohr: 2s-sz confined orbital
    #     l=1, rc=5.3906 Bohr: 2p-sz confined orbital
    #     l=2, rc=5.3906 Bohr: d-type Gaussian polarization
    #   Number of RI-basis functions 0

  H:
    name: Hydrogen
    id: d65de229564ff8ea4db303e23b6d1ecf
    Z: 1.0
    valence: 1
    core: 0
    charge: 0.0
    file: /home/qchem/gpaw-venv/lib/python3.12/site-packages/gpaw_data/setups/H.PBE.gz
    compensation charges: {type: gauss,
                           rc: 0.15,
                           lmax: 2}
    cutoffs: {filter: 0.85,
              core: 0.53}
    projectors:
      #              energy  rcut
      - 1s(1.00)    -6.494   0.476
      -  s          20.717   0.476
      -  p           0.000   0.476
  
    # LCAO basis set for H:
    #   Name: szp(dzp)
    #   File: /home/qchem/gpaw-venv/lib/python3.12/site-packages/gpaw_data/setups/H.dzp.basis.gz
    #   Number of radial functions: 2
    #   Number of spherical harmonics: 4
    #     l=0, rc=6.4219 Bohr: 1s-sz confined orbital
    #     l=1, rc=6.4219 Bohr: p-type Gaussian polarization
    #   Number of RI-basis functions 0

Reference energy: -4942243.008314  # eV

Spin-polarized calculation.
Initial magnetic moment: 0.000000

Convergence criteria:
 Maximum [total energy] change in last 3 cyles: 0.0005 eV / valence electron
 Maximum integral of absolute [dens]ity change: 0.0001 electrons / valence electron
 Maximum integral of absolute [eigenst]ate change: 4e-08 eV^2 / valence electron
 Maximum number of scf [iter]ations: 333
 (Square brackets indicate name in SCF output, whereas a 'c' in
 the SCF output indicates the quantity has converged.)

Symmetries present (total): 1

  ( 1  0  0)
  ( 0  1  0)
  ( 0  0  1)

4 k-points: 2 x 2 x 1 Monkhorst-Pack grid + [1/4,1/4,0.000000]
4 k-points in the irreducible part of the Brillouin zone
       k-points in crystal coordinates                weights
   0:     0.00000000    0.00000000    0.00000000          1/4
   1:     0.00000000    0.50000000    0.00000000          1/4
   2:     0.50000000    0.00000000    0.00000000          1/4
   3:     0.50000000    0.50000000    0.00000000          1/4

Wave functions: LCAO
  Diagonalizer: Serial LAPACK
  Atomic Correction: dense with blas
  Data-type: complex
 

Occupation numbers: Fermi-Dirac:
  width: 0.1000  # eV
 

Eigensolver
   LCAO using direct dense diagonalizer 

Densities:
  Coarse grid: 36*36*132 grid
  Fine grid: 72*72*264 grid
  Total Charge: 0.000000 

Density mixing:
  Method: difference
  Backend: pulay
  Linear mixing parameter: 0.05
  old densities: 10
  Damping of long wavelength oscillations: 100 

Hamiltonian:
  XC and Coulomb potentials evaluated on a 72*72*264 grid
  Using the PBE Exchange-Correlation functional
  Interpolation: tri-quintic (5. degree polynomial)
  Poisson solver: FastPoissonSolver using
    Stencil: 8*3+1=25 point O(h^6) finite-difference Laplacian
    FFT axes: [np.int64(0), np.int64(1)]
    FST axes: [np.int64(2)]
 

XC parameters: PBE with 2 nearest neighbor stencil

Memory estimate:
  Process memory now: 269.55 MiB
  Calculator: 601.26 MiB
    Density: 265.14 MiB
      Arrays: 45.49 MiB
      Localized functions: 188.56 MiB
      Mixer: 31.09 MiB
    Hamiltonian: 47.72 MiB
      Arrays: 33.80 MiB
      XC: 0.00 MiB
      Poisson: 0.00 MiB
      vbar: 13.92 MiB
    Wavefunctions: 288.40 MiB
      C [qnM]: 2.40 MiB
      S, T [2 x qmm]: 6.04 MiB
      P [aqMi]: 0.28 MiB
      BasisFunctions: 279.67 MiB
      Eigensolver: 0.00 MiB

Total number of cores used: 4
Parallelization over k-points: 4

Number of atoms: 38
Number of atomic orbitals: 445
Number of bands in calculation: 354
Number of valence electrons: 583
Bands to converge: occupied

... initialized

Initializing position-dependent things.

Density initialized from atomic densities
                                           
                                           
                                           
                                           
                                           
                        O                  
                        H                  
                       Pd                  
                Pd            Pd           
            Pd   PPd    PPd    Pd          
       Pd     Pd    Pd                     
             Pd    Pd     Pd               
        Pd     Pd    Pd                    
                    Pd     Pd    Pd        
                Pd    Pd     Pd            
           Pd    Pd     Pd                 
                Pd     Pd     Pd           
            Pd    Pd     Pd                
       Pd     Pd    Pd                     
                                           
                                           
                                           
                                           

Atomic positions and initial magnetic moments

Positions:
   0 Pd     0.000000    0.000000   10.000000    ( 0.0000,  0.0000,  0.0000)
   1 Pd     2.715573    0.000000   10.000000    ( 0.0000,  0.0000,  0.0000)
   2 Pd     5.431146    0.000000   10.000000    ( 0.0000,  0.0000,  0.0000)
   3 Pd     1.357786    2.351755   10.000000    ( 0.0000,  0.0000,  0.0000)
   4 Pd     4.073359    2.351755   10.000000    ( 0.0000,  0.0000,  0.0000)
   5 Pd     6.788932    2.351755   10.000000    ( 0.0000,  0.0000,  0.0000)
   6 Pd     2.715573    4.703510   10.000000    ( 0.0000,  0.0000,  0.0000)
   7 Pd     5.431146    4.703510   10.000000    ( 0.0000,  0.0000,  0.0000)
   8 Pd     8.146719    4.703510   10.000000    ( 0.0000,  0.0000,  0.0000)
   9 Pd     1.357786    0.783918   12.217256    ( 0.0000,  0.0000,  0.0000)
  10 Pd     4.073359    0.783918   12.217256    ( 0.0000,  0.0000,  0.0000)
  11 Pd     6.788932    0.783918   12.217256    ( 0.0000,  0.0000,  0.0000)
  12 Pd     2.715573    3.135673   12.217256    ( 0.0000,  0.0000,  0.0000)
  13 Pd     5.431146    3.135673   12.217256    ( 0.0000,  0.0000,  0.0000)
  14 Pd     8.146719    3.135673   12.217256    ( 0.0000,  0.0000,  0.0000)
  15 Pd     4.073359    5.487429   12.217256    ( 0.0000,  0.0000,  0.0000)
  16 Pd     6.788932    5.487429   12.217256    ( 0.0000,  0.0000,  0.0000)
  17 Pd     9.504505    5.487429   12.217256    ( 0.0000,  0.0000,  0.0000)
  18 Pd    -0.007974    1.572610   14.508516    ( 0.0000,  0.0000,  0.0000)
  19 Pd     2.721051    1.570999   14.496150    ( 0.0000,  0.0000,  0.0000)
  20 Pd     5.435942    1.574158   14.513417    ( 0.0000,  0.0000,  0.0000)
  21 Pd     1.353700    3.921660   14.491459    ( 0.0000,  0.0000,  0.0000)
  22 Pd     4.081233    3.920584   14.513417    ( 0.0000,  0.0000,  0.0000)
  23 Pd     6.785199    3.917436   14.528407    ( 0.0000,  0.0000,  0.0000)
  24 Pd     2.716080    6.271639   14.481699    ( 0.0000,  0.0000,  0.0000)
  25 Pd     5.431293    6.262053   14.508516    ( 0.0000,  0.0000,  0.0000)
  26 Pd     8.146467    6.266773   14.491459    ( 0.0000,  0.0000,  0.0000)
  27 Pd    -0.000720   -0.000417   16.780066    ( 0.0000,  0.0000,  0.0000)
  28 Pd     2.715224   -0.001983   16.776419    ( 0.0000,  0.0000,  0.0000)
  29 Pd     5.430305   -0.001988   16.776032    ( 0.0000,  0.0000,  0.0000)
  30 Pd     1.355896    2.352443   16.776419    ( 0.0000,  0.0000,  0.0000)
  31 Pd     4.070925    2.350348   16.832012    ( 0.0000,  0.0000,  0.0000)
  32 Pd     6.798792    2.326842   16.923728    ( 0.0000,  0.0000,  0.0000)
  33 Pd     2.713432    4.703775   16.776032    ( 0.0000,  0.0000,  0.0000)
  34 Pd     5.414501    4.724504   16.923728    ( 0.0000,  0.0000,  0.0000)
  35 Pd     8.143548    4.701678   16.832634    ( 0.0000,  0.0000,  0.0000)
  36 O      6.109214    3.527156   19.391531    ( 0.0000,  0.0000,  0.0000)
  37 H      6.117593    3.531994   18.389388    ( 0.0000,  0.0000,  0.0000)

Unit cell:
           periodic     x           y           z      points  spacing
  1. axis:    yes    8.146719    0.000000    0.000000    36     0.1960
  2. axis:    yes    4.073359    7.055265    0.000000    36     0.1960
  3. axis:    no     0.000000    0.000000   26.651768   132     0.2019

  Lengths:   8.146719   8.146719  26.651768
  Angles:   90.000000  90.000000  60.000000

Effective grid spacing dv^(1/3) = 0.2077

     iter     time        total  log10-change:  magmom
                         energy   eigst   dens
iter:   1 11:33:56  -180.157196        c          +0.0000
iter:   2 11:43:02  -265.956306        c -1.12    -0.0000
iter:   3 11:53:32  -157.954479        c -1.01    -0.0000
iter:   4 12:02:02  -167.207661        c -1.19    -0.0000
iter:   5 12:11:25  -149.874091        c -1.19    -0.0000
iter:   6 12:20:56  -121.520493        c -1.25    -0.0000
iter:   7 12:33:01  -107.371402        c -1.41    -0.0000
iter:   8 12:45:34  -106.999319        c -1.66    -0.0000
iter:   9 12:55:07  -106.263306        c -1.80    +0.0000
iter:  10 13:06:49  -106.027136        c -1.96    +0.0000
iter:  11 13:19:56  -104.426370        c -2.02    +0.0000
iter:  12 13:29:43  -103.322019        c -2.20    +0.0000
iter:  13 13:38:06  -102.700199        c -2.34    +0.0000
iter:  14 13:45:50  -102.925873        c -2.38    +0.0000
iter:  15 13:55:49  -102.942632c       c -2.33    +0.0000
iter:  16 14:08:09  -102.588527        c -2.36    +0.0000
iter:  17 14:20:22  -102.100176        c -2.43    +0.0000
iter:  18 14:29:27  -101.980015        c -2.53    +0.0000
iter:  19 14:38:31  -101.944745c       c -2.77    +0.0000
iter:  20 14:47:08  -102.076875c       c -2.89    +0.0000
iter:  21 14:57:36  -101.948850c       c -2.55    +0.0000
iter:  22 15:14:08  -102.044171c       c -2.96    +0.0000
iter:  23 15:28:05  -101.924581c       c -2.66    +0.0000
iter:  24 15:36:23  -101.922812c       c -3.43    +0.0000
iter:  25 15:43:51  -101.924866c       c -3.79    +0.0000
iter:  26 15:54:17  -101.926131c       c -3.62    +0.0000
iter:  27 16:03:15  -101.923877c       c -3.59    +0.0000
iter:  28 16:13:11  -101.923794c       c -3.76    +0.0000
iter:  29 16:26:19  -101.923846c       c -3.80    +0.0000
iter:  30 16:40:15  -101.923965c       c -3.79    +0.0000
iter:  31 16:54:16  -101.922980c       c -3.76    -0.0000
iter:  32 17:03:26  -101.922410c       c -3.96    -0.0000
iter:  33 17:12:34  -101.922693c       c -4.02c   -0.0000

Converged after 33 iterations.

Dipole moment: (-13.098333, -7.562214, -0.776671) |e|*Ang

Total magnetic moment: (0.000000, 0.000000, -0.000000)
Local magnetic moments:
   0 Pd ( 0.000000,  0.000000, -0.000000)
   1 Pd ( 0.000000,  0.000000, -0.000000)
   2 Pd ( 0.000000,  0.000000, -0.000000)
   3 Pd ( 0.000000,  0.000000, -0.000000)
   4 Pd ( 0.000000,  0.000000, -0.000000)
   5 Pd ( 0.000000,  0.000000, -0.000000)
   6 Pd ( 0.000000,  0.000000, -0.000000)
   7 Pd ( 0.000000,  0.000000, -0.000000)
   8 Pd ( 0.000000,  0.000000, -0.000000)
   9 Pd ( 0.000000,  0.000000, -0.000000)
  10 Pd ( 0.000000,  0.000000, -0.000000)
  11 Pd ( 0.000000,  0.000000, -0.000000)
  12 Pd ( 0.000000,  0.000000, -0.000000)
  13 Pd ( 0.000000,  0.000000, -0.000000)
  14 Pd ( 0.000000,  0.000000, -0.000000)
  15 Pd ( 0.000000,  0.000000, -0.000000)
  16 Pd ( 0.000000,  0.000000, -0.000000)
  17 Pd ( 0.000000,  0.000000, -0.000000)
  18 Pd ( 0.000000,  0.000000,  0.000000)
  19 Pd ( 0.000000,  0.000000, -0.000000)
  20 Pd ( 0.000000,  0.000000, -0.000000)
  21 Pd ( 0.000000,  0.000000, -0.000000)
  22 Pd ( 0.000000,  0.000000,  0.000000)
  23 Pd ( 0.000000,  0.000000, -0.000000)
  24 Pd ( 0.000000,  0.000000,  0.000000)
  25 Pd ( 0.000000,  0.000000, -0.000000)
  26 Pd ( 0.000000,  0.000000,  0.000000)
  27 Pd ( 0.000000,  0.000000, -0.000000)
  28 Pd ( 0.000000,  0.000000,  0.000000)
  29 Pd ( 0.000000,  0.000000, -0.000000)
  30 Pd ( 0.000000,  0.000000,  0.000000)
  31 Pd ( 0.000000,  0.000000, -0.000000)
  32 Pd ( 0.000000,  0.000000,  0.000000)
  33 Pd ( 0.000000,  0.000000,  0.000000)
  34 Pd ( 0.000000,  0.000000,  0.000000)
  35 Pd ( 0.000000,  0.000000,  0.000000)
  36 O  ( 0.000000,  0.000000,  0.000000)
  37 H  ( 0.000000,  0.000000,  0.000000)

Energy contributions relative to reference atoms: (reference = -4942243.008314)

Kinetic:       -1964.804939
Potential:     +1724.573591
External:        +0.000000
XC:            +136.518418
Entropy (-ST):   -2.325838
Local:           +2.953156
SIC:             +0.000000
--------------------------
Free energy:   -103.085612
Extrapolated:  -101.922693

Spin contamination: 0.000000 electrons
Showing only first 2 kpts
                      Up                     Down
 Kpt  Band  Eigenvalues  Occupancy  Eigenvalues  Occupancy
  0   289     -6.57989    0.95005     -6.57989    0.95005
  0   290     -6.57297    0.94666     -6.57297    0.94666
  0   291     -6.56207    0.94088     -6.56207    0.94088
  0   292     -6.51918    0.91201     -6.51918    0.91201

  1   289     -6.33098    0.61216     -6.33098    0.61216
  1   290     -6.25778    0.43154     -6.25778    0.43154
  1   291     -6.17410    0.24743     -6.17410    0.24743
  1   292     -6.16756    0.23545     -6.16756    0.23545


Fermi level: -6.28534

No gap
No difference between direct/indirect transitions

Forces in eV/Ang:
  0 Pd    0.00657    0.00379   -0.47417
  1 Pd   -0.00069   -0.00162   -0.49024
  2 Pd   -0.00359    0.00150   -0.47171
  3 Pd   -0.00175    0.00022   -0.49024
  4 Pd   -0.00200   -0.00116   -0.47046
  5 Pd    0.00356   -0.00159   -0.46564
  6 Pd   -0.00050   -0.00386   -0.47171
  7 Pd    0.00040    0.00388   -0.46564
  8 Pd    0.00339    0.00196   -0.47398
  9 Pd   -0.01857   -0.01072    0.63985
 10 Pd    0.02288    0.01592    0.61761
 11 Pd   -0.00094    0.04117    0.64152
 12 Pd    0.02522    0.01185    0.61761
 13 Pd    0.01773    0.01024    0.73029
 14 Pd   -0.03931   -0.00027    0.66807
 15 Pd    0.03518   -0.02139    0.64152
 16 Pd   -0.01989   -0.03391    0.66807
 17 Pd   -0.01238   -0.00715    0.57702
 18 Pd   -0.00923    0.00463   -0.02816
 19 Pd   -0.00736   -0.00425   -0.05497
 20 Pd    0.00487    0.01042   -0.00271
 21 Pd   -0.00423   -0.00404   -0.03849
 22 Pd    0.01146   -0.00099   -0.00271
 23 Pd   -0.01551   -0.00896    0.09068
 24 Pd    0.00169    0.00097   -0.05129
 25 Pd   -0.00060   -0.01031   -0.02816
 26 Pd   -0.00561   -0.00164   -0.03849
 27 Pd   -0.01118   -0.00646    0.04540
 28 Pd    0.03184    0.01547    0.02767
 29 Pd   -0.03174   -0.01625    0.01962
 30 Pd    0.02932    0.01984    0.02767
 31 Pd    0.05458    0.03151   -0.05902
 32 Pd   -0.01767    0.02701   -0.26614
 33 Pd   -0.02994   -0.01936    0.01962
 34 Pd    0.01455   -0.02881   -0.26614
 35 Pd   -0.05868   -0.03388   -0.07186
 36 O    -0.03481   -0.02009    1.08832
 37 H     0.04864    0.02808   -1.76624

System changes: positions 

Initializing position-dependent things.

Density initialized from wave functions
                                           
                                           
                                           
                                           
                                           
                        O                  
                        H                  
                       Pd                  
                Pd            Pd           
            Pd   PPd    PPd    Pd          
       Pd     Pd    Pd                     
             Pd    Pd     Pd               
        Pd     Pd    Pd                    
                    Pd     Pd    Pd        
                Pd    Pd     Pd            
           Pd    Pd     Pd                 
                Pd     Pd     Pd           
            Pd    Pd     Pd                
       Pd     Pd    Pd                     
                                           
                                           
                                           
                                           

Atomic positions and initial magnetic moments

Positions:
   0 Pd     0.000000    0.000000   10.000000    ( 0.0000,  0.0000,  0.0000)
   1 Pd     2.715573    0.000000   10.000000    ( 0.0000,  0.0000,  0.0000)
   2 Pd     5.431146    0.000000   10.000000    ( 0.0000,  0.0000,  0.0000)
   3 Pd     1.357786    2.351755   10.000000    ( 0.0000,  0.0000,  0.0000)
   4 Pd     4.073359    2.351755   10.000000    ( 0.0000,  0.0000,  0.0000)
   5 Pd     6.788932    2.351755   10.000000    ( 0.0000,  0.0000,  0.0000)
   6 Pd     2.715573    4.703510   10.000000    ( 0.0000,  0.0000,  0.0000)
   7 Pd     5.431146    4.703510   10.000000    ( 0.0000,  0.0000,  0.0000)
   8 Pd     8.146719    4.703510   10.000000    ( 0.0000,  0.0000,  0.0000)
   9 Pd     1.357786    0.783918   12.217256    ( 0.0000,  0.0000,  0.0000)
  10 Pd     4.073359    0.783918   12.217256    ( 0.0000,  0.0000,  0.0000)
  11 Pd     6.788932    0.783918   12.217256    ( 0.0000,  0.0000,  0.0000)
  12 Pd     2.715573    3.135673   12.217256    ( 0.0000,  0.0000,  0.0000)
  13 Pd     5.431146    3.135673   12.217256    ( 0.0000,  0.0000,  0.0000)
  14 Pd     8.146719    3.135673   12.217256    ( 0.0000,  0.0000,  0.0000)
  15 Pd     4.073359    5.487429   12.217256    ( 0.0000,  0.0000,  0.0000)
  16 Pd     6.788932    5.487429   12.217256    ( 0.0000,  0.0000,  0.0000)
  17 Pd     9.504505    5.487429   12.217256    ( 0.0000,  0.0000,  0.0000)
  18 Pd    -0.008106    1.572676   14.508114    ( 0.0000,  0.0000,  0.0000)
  19 Pd     2.720946    1.570938   14.495365    ( 0.0000,  0.0000,  0.0000)
  20 Pd     5.436012    1.574307   14.513378    ( 0.0000,  0.0000,  0.0000)
  21 Pd     1.353640    3.921602   14.490909    ( 0.0000,  0.0000,  0.0000)
  22 Pd     4.081397    3.920570   14.513378    ( 0.0000,  0.0000,  0.0000)
  23 Pd     6.784977    3.917308   14.529702    ( 0.0000,  0.0000,  0.0000)
  24 Pd     2.716104    6.271653   14.480967    ( 0.0000,  0.0000,  0.0000)
  25 Pd     5.431284    6.261906   14.508114    ( 0.0000,  0.0000,  0.0000)
  26 Pd     8.146387    6.266749   14.490909    ( 0.0000,  0.0000,  0.0000)
  27 Pd    -0.000879   -0.000509   16.780714    ( 0.0000,  0.0000,  0.0000)
  28 Pd     2.715679   -0.001762   16.776814    ( 0.0000,  0.0000,  0.0000)
  29 Pd     5.429852   -0.002220   16.776313    ( 0.0000,  0.0000,  0.0000)
  30 Pd     1.356315    2.352726   16.776814    ( 0.0000,  0.0000,  0.0000)
  31 Pd     4.071705    2.350799   16.831169    ( 0.0000,  0.0000,  0.0000)
  32 Pd     6.798539    2.327228   16.919926    ( 0.0000,  0.0000,  0.0000)
  33 Pd     2.713004    4.703498   16.776313    ( 0.0000,  0.0000,  0.0000)
  34 Pd     5.414709    4.724092   16.919926    ( 0.0000,  0.0000,  0.0000)
  35 Pd     8.142710    4.701194   16.831607    ( 0.0000,  0.0000,  0.0000)
  36 O      6.108716    3.526869   19.407078    ( 0.0000,  0.0000,  0.0000)
  37 H      6.118288    3.532395   18.364156    ( 0.0000,  0.0000,  0.0000)

Unit cell:
           periodic     x           y           z      points  spacing
  1. axis:    yes    8.146719    0.000000    0.000000    36     0.1960
  2. axis:    yes    4.073359    7.055265    0.000000    36     0.1960
  3. axis:    no     0.000000    0.000000   26.651768   132     0.2019

  Lengths:   8.146719   8.146719  26.651768
  Angles:   90.000000  90.000000  60.000000

Effective grid spacing dv^(1/3) = 0.2077

     iter     time        total  log10-change:  magmom
                         energy   eigst   dens
iter:   1 17:35:56  -102.292665        c          -0.0000
iter:   2 17:45:09  -109.597483        c -2.33    +0.0000
iter:   3 17:53:41  -103.646076        c -1.77    +0.0000
iter:   4 18:01:28  -102.131411        c -2.05    +0.0000
iter:   5 18:09:08  -101.993499        c -2.61    +0.0000
iter:   6 18:16:45  -101.961600c       c -2.98    +0.0000
iter:   7 18:23:27  -101.956388c       c -3.44    +0.0000
iter:   8 18:30:14  -101.952991c       c -3.44    -0.0000
iter:   9 18:36:49  -101.953689c       c -3.89    +0.0000
iter:  10 18:43:41  -101.952849c       c -3.92    +0.0000
iter:  11 18:51:07  -101.952661c       c -4.12c   +0.0000

Converged after 11 iterations.

Dipole moment: (-13.093953, -7.559684, -0.762065) |e|*Ang

Total magnetic moment: (0.000000, 0.000000, 0.000000)
Local magnetic moments:
   0 Pd ( 0.000000,  0.000000,  0.000000)
   1 Pd ( 0.000000,  0.000000,  0.000000)
   2 Pd ( 0.000000,  0.000000, -0.000000)
   3 Pd ( 0.000000,  0.000000,  0.000000)
   4 Pd ( 0.000000,  0.000000,  0.000000)
   5 Pd ( 0.000000,  0.000000,  0.000000)
   6 Pd ( 0.000000,  0.000000,  0.000000)
   7 Pd ( 0.000000,  0.000000,  0.000000)
   8 Pd ( 0.000000,  0.000000,  0.000000)
   9 Pd ( 0.000000,  0.000000,  0.000000)
  10 Pd ( 0.000000,  0.000000,  0.000000)
  11 Pd ( 0.000000,  0.000000,  0.000000)
  12 Pd ( 0.000000,  0.000000, -0.000000)
  13 Pd ( 0.000000,  0.000000,  0.000000)
  14 Pd ( 0.000000,  0.000000,  0.000000)
  15 Pd ( 0.000000,  0.000000,  0.000000)
  16 Pd ( 0.000000,  0.000000,  0.000000)
  17 Pd ( 0.000000,  0.000000,  0.000000)
  18 Pd ( 0.000000,  0.000000,  0.000000)
  19 Pd ( 0.000000,  0.000000, -0.000000)
  20 Pd ( 0.000000,  0.000000, -0.000000)
  21 Pd ( 0.000000,  0.000000,  0.000000)
  22 Pd ( 0.000000,  0.000000,  0.000000)
  23 Pd ( 0.000000,  0.000000, -0.000000)
  24 Pd ( 0.000000,  0.000000,  0.000000)
  25 Pd ( 0.000000,  0.000000,  0.000000)
  26 Pd ( 0.000000,  0.000000,  0.000000)
  27 Pd ( 0.000000,  0.000000,  0.000000)
  28 Pd ( 0.000000,  0.000000,  0.000000)
  29 Pd ( 0.000000,  0.000000,  0.000000)
  30 Pd ( 0.000000,  0.000000,  0.000000)
  31 Pd ( 0.000000,  0.000000,  0.000000)
  32 Pd ( 0.000000,  0.000000,  0.000000)
  33 Pd ( 0.000000,  0.000000,  0.000000)
  34 Pd ( 0.000000,  0.000000,  0.000000)
  35 Pd ( 0.000000,  0.000000,  0.000000)
  36 O  ( 0.000000,  0.000000,  0.000000)
  37 H  ( 0.000000,  0.000000, -0.000000)

Energy contributions relative to reference atoms: (reference = -4942243.008314)

Kinetic:       -1970.887232
Potential:     +1730.109162
External:        +0.000000
XC:            +137.078745
Entropy (-ST):   -2.329528
Local:           +2.911427
SIC:             +0.000000
--------------------------
Free energy:   -103.117425
Extrapolated:  -101.952661

Spin contamination: 0.000000 electrons
Showing only first 2 kpts
                      Up                     Down
 Kpt  Band  Eigenvalues  Occupancy  Eigenvalues  Occupancy
  0   289     -6.57982    0.95001     -6.57982    0.95001
  0   290     -6.57521    0.94778     -6.57521    0.94778
  0   291     -6.55692    0.93795     -6.55692    0.93795
  0   292     -6.51603    0.90944     -6.51603    0.90944

  1   289     -6.33034    0.61062     -6.33034    0.61062
  1   290     -6.25956    0.43589     -6.25956    0.43589
  1   291     -6.17460    0.24834     -6.17460    0.24834
  1   292     -6.16793    0.23611     -6.16793    0.23611


Fermi level: -6.28535

No gap
No difference between direct/indirect transitions

Forces in eV/Ang:
  0 Pd    0.00547    0.00316   -0.50095
  1 Pd   -0.00007   -0.00079   -0.51644
  2 Pd   -0.00302   -0.00007   -0.49830
  3 Pd   -0.00072    0.00033   -0.51644
  4 Pd   -0.00220   -0.00127   -0.49806
  5 Pd    0.00308   -0.00089   -0.49216
  6 Pd   -0.00158   -0.00258   -0.49830
  7 Pd    0.00077    0.00311   -0.49216
  8 Pd    0.00383    0.00221   -0.50011
  9 Pd   -0.01962   -0.01133    0.63889
 10 Pd    0.02517    0.01572    0.61759
 11 Pd   -0.00233    0.04162    0.64176
 12 Pd    0.02620    0.01393    0.61759
 13 Pd    0.01893    0.01093    0.73508
 14 Pd   -0.04181    0.00199    0.67301
 15 Pd    0.03488   -0.02283    0.64176
 16 Pd   -0.01918   -0.03721    0.67302
 17 Pd   -0.01308   -0.00755    0.57517
 18 Pd   -0.00491    0.00004   -0.02001
 19 Pd   -0.00732   -0.00423   -0.03323
 20 Pd    0.00166    0.00341   -0.00350
 21 Pd   -0.00333   -0.00157   -0.02410
 22 Pd    0.00378   -0.00027   -0.00350
 23 Pd   -0.01108   -0.00640    0.07481
 24 Pd    0.00113    0.00065   -0.03060
 25 Pd   -0.00242   -0.00428   -0.02001
 26 Pd   -0.00303   -0.00210   -0.02410
 27 Pd   -0.01073   -0.00620    0.03659
 28 Pd    0.02697    0.02337    0.02261
 29 Pd   -0.02784   -0.02383    0.01578
 30 Pd    0.03372    0.01167    0.02261
 31 Pd    0.05388    0.03111   -0.04952
 32 Pd   -0.02475    0.04002   -0.23923
 33 Pd   -0.03455   -0.01219    0.01578
 34 Pd    0.02228   -0.04145   -0.23923
 35 Pd   -0.05649   -0.03261   -0.06067
 36 O    -0.00507   -0.00293   -0.51446
 37 H     0.03085    0.01781   -0.22909

System changes: positions 

Initializing position-dependent things.

Density initialized from wave functions
                                           
                                           
                                           
                                           
                                           
                        O                  
                        H                  
                       Pd                  
                Pd            Pd           
            Pd   PPd    PPd    Pd          
       Pd     Pd    Pd                     
             Pd    Pd     Pd               
        Pd     Pd    Pd                    
                    Pd     Pd    Pd        
                Pd    Pd     Pd            
           Pd    Pd     Pd                 
                Pd     Pd     Pd           
            Pd    Pd     Pd                
       Pd     Pd    Pd                     
                                           
                                           
                                           
                                           

Atomic positions and initial magnetic moments

Positions:
   0 Pd     0.000000    0.000000   10.000000    ( 0.0000,  0.0000,  0.0000)
   1 Pd     2.715573    0.000000   10.000000    ( 0.0000,  0.0000,  0.0000)
   2 Pd     5.431146    0.000000   10.000000    ( 0.0000,  0.0000,  0.0000)
   3 Pd     1.357786    2.351755   10.000000    ( 0.0000,  0.0000,  0.0000)
   4 Pd     4.073359    2.351755   10.000000    ( 0.0000,  0.0000,  0.0000)
   5 Pd     6.788932    2.351755   10.000000    ( 0.0000,  0.0000,  0.0000)
   6 Pd     2.715573    4.703510   10.000000    ( 0.0000,  0.0000,  0.0000)
   7 Pd     5.431146    4.703510   10.000000    ( 0.0000,  0.0000,  0.0000)
   8 Pd     8.146719    4.703510   10.000000    ( 0.0000,  0.0000,  0.0000)
   9 Pd     1.357786    0.783918   12.217256    ( 0.0000,  0.0000,  0.0000)
  10 Pd     4.073359    0.783918   12.217256    ( 0.0000,  0.0000,  0.0000)
  11 Pd     6.788932    0.783918   12.217256    ( 0.0000,  0.0000,  0.0000)
  12 Pd     2.715573    3.135673   12.217256    ( 0.0000,  0.0000,  0.0000)
  13 Pd     5.431146    3.135673   12.217256    ( 0.0000,  0.0000,  0.0000)
  14 Pd     8.146719    3.135673   12.217256    ( 0.0000,  0.0000,  0.0000)
  15 Pd     4.073359    5.487429   12.217256    ( 0.0000,  0.0000,  0.0000)
  16 Pd     6.788932    5.487429   12.217256    ( 0.0000,  0.0000,  0.0000)
  17 Pd     9.504505    5.487429   12.217256    ( 0.0000,  0.0000,  0.0000)
  18 Pd    -0.008191    1.572683   14.507785    ( 0.0000,  0.0000,  0.0000)
  19 Pd     2.720830    1.570871   14.494806    ( 0.0000,  0.0000,  0.0000)
  20 Pd     5.436043    1.574372   14.513324    ( 0.0000,  0.0000,  0.0000)
  21 Pd     1.353585    3.921574   14.490505    ( 0.0000,  0.0000,  0.0000)
  22 Pd     4.081468    3.920564   14.513324    ( 0.0000,  0.0000,  0.0000)
  23 Pd     6.784795    3.917203   14.530911    ( 0.0000,  0.0000,  0.0000)
  24 Pd     2.716123    6.271664   14.480451    ( 0.0000,  0.0000,  0.0000)
  25 Pd     5.431248    6.261829   14.507785    ( 0.0000,  0.0000,  0.0000)
  26 Pd     8.146335    6.266717   14.490505    ( 0.0000,  0.0000,  0.0000)
  27 Pd    -0.001050   -0.000607   16.781307    ( 0.0000,  0.0000,  0.0000)
  28 Pd     2.716113   -0.001404   16.777180    ( 0.0000,  0.0000,  0.0000)
  29 Pd     5.429405   -0.002586   16.776568    ( 0.0000,  0.0000,  0.0000)
  30 Pd     1.356842    2.352923   16.777180    ( 0.0000,  0.0000,  0.0000)
  31 Pd     4.072559    2.351292   16.830370    ( 0.0000,  0.0000,  0.0000)
  32 Pd     6.798158    2.327842   16.916097    ( 0.0000,  0.0000,  0.0000)
  33 Pd     2.712464    4.703294   16.776568    ( 0.0000,  0.0000,  0.0000)
  34 Pd     5.415050    4.723455   16.916097    ( 0.0000,  0.0000,  0.0000)
  35 Pd     8.141812    4.700676   16.830629    ( 0.0000,  0.0000,  0.0000)
  36 O      6.108591    3.526797   19.401338    ( 0.0000,  0.0000,  0.0000)
  37 H      6.118804    3.532692   18.358220    ( 0.0000,  0.0000,  0.0000)

Unit cell:
           periodic     x           y           z      points  spacing
  1. axis:    yes    8.146719    0.000000    0.000000    36     0.1960
  2. axis:    yes    4.073359    7.055265    0.000000    36     0.1960
  3. axis:    no     0.000000    0.000000   26.651768   132     0.2019

  Lengths:   8.146719   8.146719  26.651768
  Angles:   90.000000  90.000000  60.000000

Effective grid spacing dv^(1/3) = 0.2077

     iter     time        total  log10-change:  magmom
                         energy   eigst   dens
iter:   1 19:14:34  -103.179599        c          +0.0000
iter:   2 19:22:41  -121.629089        c -2.09    +0.0000
iter:   3 19:30:08  -103.271436        c -1.61    +0.0000
iter:   4 19:38:12  -102.121321        c -2.11    +0.0000
iter:   5 19:45:56  -102.033819        c -2.64    +0.0000
iter:   6 19:52:52  -101.998281c       c -2.82    +0.0000
iter:   7 20:00:56  -101.976584c       c -2.97    +0.0000
iter:   8 20:10:12  -101.972046c       c -3.22    +0.0000
iter:   9 20:17:14  -101.967088c       c -3.29    +0.0000
iter:  10 20:25:41  -101.966139c       c -3.45    +0.0000
iter:  11 20:36:01  -101.965111c       c -3.48    +0.0000
iter:  12 20:46:14  -101.963138c       c -3.53    +0.0000
iter:  13 20:57:12  -101.960161c       c -3.67    -0.0000
iter:  14 21:06:42  -101.959948c       c -4.60c   +0.0000

Converged after 14 iterations.

Dipole moment: (-13.089900, -7.557343, -0.758901) |e|*Ang

Total magnetic moment: (0.000000, 0.000000, 0.000000)
Local magnetic moments:
   0 Pd ( 0.000000,  0.000000, -0.000000)
   1 Pd ( 0.000000,  0.000000,  0.000000)
   2 Pd ( 0.000000,  0.000000, -0.000000)
   3 Pd ( 0.000000,  0.000000,  0.000000)
   4 Pd ( 0.000000,  0.000000, -0.000000)
   5 Pd ( 0.000000,  0.000000,  0.000000)
   6 Pd ( 0.000000,  0.000000, -0.000000)
   7 Pd ( 0.000000,  0.000000, -0.000000)
   8 Pd ( 0.000000,  0.000000, -0.000000)
   9 Pd ( 0.000000,  0.000000,  0.000000)
  10 Pd ( 0.000000,  0.000000,  0.000000)
  11 Pd ( 0.000000,  0.000000, -0.000000)
  12 Pd ( 0.000000,  0.000000, -0.000000)
  13 Pd ( 0.000000,  0.000000, -0.000000)
  14 Pd ( 0.000000,  0.000000, -0.000000)
  15 Pd ( 0.000000,  0.000000,  0.000000)
  16 Pd ( 0.000000,  0.000000, -0.000000)
  17 Pd ( 0.000000,  0.000000, -0.000000)
  18 Pd ( 0.000000,  0.000000,  0.000000)
  19 Pd ( 0.000000,  0.000000,  0.000000)
  20 Pd ( 0.000000,  0.000000,  0.000000)
  21 Pd ( 0.000000,  0.000000,  0.000000)
  22 Pd ( 0.000000,  0.000000,  0.000000)
  23 Pd ( 0.000000,  0.000000,  0.000000)
  24 Pd ( 0.000000,  0.000000,  0.000000)
  25 Pd ( 0.000000,  0.000000,  0.000000)
  26 Pd ( 0.000000,  0.000000,  0.000000)
  27 Pd ( 0.000000,  0.000000,  0.000000)
  28 Pd ( 0.000000,  0.000000,  0.000000)
  29 Pd ( 0.000000,  0.000000,  0.000000)
  30 Pd ( 0.000000,  0.000000,  0.000000)
  31 Pd ( 0.000000,  0.000000,  0.000000)
  32 Pd ( 0.000000,  0.000000,  0.000000)
  33 Pd ( 0.000000,  0.000000,  0.000000)
  34 Pd ( 0.000000,  0.000000,  0.000000)
  35 Pd ( 0.000000,  0.000000,  0.000000)
  36 O  ( 0.000000,  0.000000,  0.000000)
  37 H  ( 0.000000,  0.000000, -0.000000)

Energy contributions relative to reference atoms: (reference = -4942243.008314)

Kinetic:       -1970.219199
Potential:     +1729.410994
External:        +0.000000
XC:            +137.045107
Entropy (-ST):   -2.327629
Local:           +2.966964
SIC:             +0.000000
--------------------------
Free energy:   -103.123762
Extrapolated:  -101.959948

Spin contamination: 0.000000 electrons
Showing only first 2 kpts
                      Up                     Down
 Kpt  Band  Eigenvalues  Occupancy  Eigenvalues  Occupancy
  0   289     -6.57740    0.94971     -6.57740    0.94971
  0   290     -6.57229    0.94722     -6.57229    0.94722
  0   291     -6.55654    0.93877     -6.55654    0.93877
  0   292     -6.51591    0.91081     -6.51591    0.91081

  1   289     -6.32894    0.61155     -6.32894    0.61155
  1   290     -6.25660    0.43303     -6.25660    0.43303
  1   291     -6.17210    0.24702     -6.17210    0.24702
  1   292     -6.16591    0.23570     -6.16591    0.23570


Fermi level: -6.28355

No gap
No difference between direct/indirect transitions

Forces in eV/Ang:
  0 Pd    0.00568    0.00328   -0.49507
  1 Pd   -0.00006   -0.00108   -0.51082
  2 Pd   -0.00322    0.00037   -0.49257
  3 Pd   -0.00096    0.00048   -0.51082
  4 Pd   -0.00193   -0.00111   -0.49181
  5 Pd    0.00311   -0.00073   -0.48574
  6 Pd   -0.00129   -0.00297   -0.49257
  7 Pd    0.00092    0.00306   -0.48574
  8 Pd    0.00345    0.00199   -0.49400
  9 Pd   -0.01979   -0.01143    0.63463
 10 Pd    0.02537    0.01641    0.61285
 11 Pd   -0.00245    0.04282    0.63553
 12 Pd    0.02690    0.01377    0.61285
 13 Pd    0.02037    0.01176    0.73069
 14 Pd   -0.04394    0.00233    0.66871
 15 Pd    0.03585   -0.02353    0.63553
 16 Pd   -0.01995   -0.03922    0.66871
 17 Pd   -0.01325   -0.00765    0.56910
 18 Pd   -0.00041   -0.00161   -0.02128
 19 Pd   -0.00702   -0.00405   -0.03304
 20 Pd   -0.00175   -0.00087   -0.01074
 21 Pd   -0.00211   -0.00213   -0.02579
 22 Pd   -0.00163   -0.00108   -0.01074
 23 Pd   -0.00834   -0.00481    0.05194
 24 Pd   -0.00010   -0.00006   -0.02893
 25 Pd   -0.00160    0.00045   -0.02127
 26 Pd   -0.00289   -0.00076   -0.02579
 27 Pd   -0.00886   -0.00512    0.04706
 28 Pd    0.02214    0.02208    0.03364
 29 Pd   -0.02427   -0.02255    0.02786
 30 Pd    0.03020    0.00813    0.03364
 31 Pd    0.03248    0.01875   -0.04257
 32 Pd   -0.00557    0.00460   -0.23858
 33 Pd   -0.03166   -0.00974    0.02786
 34 Pd    0.00120   -0.00713   -0.23858
 35 Pd   -0.03389   -0.01957   -0.05169
 36 O    -0.00727   -0.00420   -0.41754
 37 H     0.03765    0.02173   -0.23837

System changes: positions 

Initializing position-dependent things.

Density initialized from wave functions
                                           
                                           
                                           
                                           
                                           
                        O                  
                        H                  
                       Pd                  
                Pd            Pd           
            Pd   PPd    PPd    Pd          
       Pd     Pd    Pd                     
             Pd    Pd     Pd               
        Pd     Pd    Pd                    
                    Pd     Pd    Pd        
                Pd    Pd     Pd            
           Pd    Pd     Pd                 
                Pd     Pd     Pd           
            Pd    Pd     Pd                
       Pd     Pd    Pd                     
                                           
                                           
                                           
                                           

Atomic positions and initial magnetic moments

Positions:
   0 Pd     0.000000    0.000000   10.000000    ( 0.0000,  0.0000,  0.0000)
   1 Pd     2.715573    0.000000   10.000000    ( 0.0000,  0.0000,  0.0000)
   2 Pd     5.431146    0.000000   10.000000    ( 0.0000,  0.0000,  0.0000)
   3 Pd     1.357786    2.351755   10.000000    ( 0.0000,  0.0000,  0.0000)
   4 Pd     4.073359    2.351755   10.000000    ( 0.0000,  0.0000,  0.0000)
   5 Pd     6.788932    2.351755   10.000000    ( 0.0000,  0.0000,  0.0000)
   6 Pd     2.715573    4.703510   10.000000    ( 0.0000,  0.0000,  0.0000)
   7 Pd     5.431146    4.703510   10.000000    ( 0.0000,  0.0000,  0.0000)
   8 Pd     8.146719    4.703510   10.000000    ( 0.0000,  0.0000,  0.0000)
   9 Pd     1.357786    0.783918   12.217256    ( 0.0000,  0.0000,  0.0000)
  10 Pd     4.073359    0.783918   12.217256    ( 0.0000,  0.0000,  0.0000)
  11 Pd     6.788932    0.783918   12.217256    ( 0.0000,  0.0000,  0.0000)
  12 Pd     2.715573    3.135673   12.217256    ( 0.0000,  0.0000,  0.0000)
  13 Pd     5.431146    3.135673   12.217256    ( 0.0000,  0.0000,  0.0000)
  14 Pd     8.146719    3.135673   12.217256    ( 0.0000,  0.0000,  0.0000)
  15 Pd     4.073359    5.487429   12.217256    ( 0.0000,  0.0000,  0.0000)
  16 Pd     6.788932    5.487429   12.217256    ( 0.0000,  0.0000,  0.0000)
  17 Pd     9.504505    5.487429   12.217256    ( 0.0000,  0.0000,  0.0000)
  18 Pd    -0.008579    1.572524   14.503417    ( 0.0000,  0.0000,  0.0000)
  19 Pd     2.719399    1.570045   14.487754    ( 0.0000,  0.0000,  0.0000)
  20 Pd     5.435921    1.574538   14.511544    ( 0.0000,  0.0000,  0.0000)
  21 Pd     1.353082    3.921131   14.485139    ( 0.0000,  0.0000,  0.0000)
  22 Pd     4.081551    3.920375   14.511544    ( 0.0000,  0.0000,  0.0000)
  23 Pd     6.782895    3.916106   14.542838    ( 0.0000,  0.0000,  0.0000)
  24 Pd     2.716176    6.271695   14.474170    ( 0.0000,  0.0000,  0.0000)
  25 Pd     5.430916    6.261572   14.503417    ( 0.0000,  0.0000,  0.0000)
  26 Pd     8.145700    6.266502   14.485139    ( 0.0000,  0.0000,  0.0000)
  27 Pd    -0.002941   -0.001699   16.790413    ( 0.0000,  0.0000,  0.0000)
  28 Pd     2.720912    0.002979   16.783486    ( 0.0000,  0.0000,  0.0000)
  29 Pd     5.424259   -0.007068   16.781634    ( 0.0000,  0.0000,  0.0000)
  30 Pd     1.363037    2.354887   16.783486    ( 0.0000,  0.0000,  0.0000)
  31 Pd     4.080222    2.355716   16.821262    ( 0.0000,  0.0000,  0.0000)
  32 Pd     6.796172    2.330364   16.867476    ( 0.0000,  0.0000,  0.0000)
  33 Pd     2.706009    4.701078   16.781634    ( 0.0000,  0.0000,  0.0000)
  34 Pd     5.416241    4.720474   16.867476    ( 0.0000,  0.0000,  0.0000)
  35 Pd     8.133777    4.696037   16.819548    ( 0.0000,  0.0000,  0.0000)
  36 O      6.106721    3.525717   19.340025    ( 0.0000,  0.0000,  0.0000)
  37 H      6.126357    3.537052   18.283880    ( 0.0000,  0.0000,  0.0000)

Unit cell:
           periodic     x           y           z      points  spacing
  1. axis:    yes    8.146719    0.000000    0.000000    36     0.1960
  2. axis:    yes    4.073359    7.055265    0.000000    36     0.1960
  3. axis:    no     0.000000    0.000000   26.651768   132     0.2019

  Lengths:   8.146719   8.146719  26.651768
  Angles:   90.000000  90.000000  60.000000

Effective grid spacing dv^(1/3) = 0.2077

     iter     time        total  log10-change:  magmom
                         energy   eigst   dens
iter:   1 21:34:56  -102.105564        c          +0.0000
iter:   2 21:45:07  -104.254199        c -2.64    +0.0000
iter:   3 21:57:40  -102.031244        c -1.95    +0.0000
iter:   4 22:08:11  -102.030760        c -3.26    +0.0000
iter:   5 22:16:46  -102.021340c       c -3.16    +0.0000
iter:   6 22:28:39  -102.021148c       c -3.72    +0.0000
iter:   7 22:41:29  -102.019579c       c -3.79    +0.0000
iter:   8 22:53:23  -102.019899c       c -3.87    +0.0000
iter:   9 23:02:38  -102.019756c       c -4.10c   +0.0000

Converged after 9 iterations.

Dipole moment: (-13.015148, -7.514172, -0.742227) |e|*Ang

Total magnetic moment: (0.000000, 0.000000, 0.000000)
Local magnetic moments:
   0 Pd ( 0.000000,  0.000000,  0.000000)
   1 Pd ( 0.000000,  0.000000,  0.000000)
   2 Pd ( 0.000000,  0.000000, -0.000000)
   3 Pd ( 0.000000,  0.000000,  0.000000)
   4 Pd ( 0.000000,  0.000000,  0.000000)
   5 Pd ( 0.000000,  0.000000,  0.000000)
   6 Pd ( 0.000000,  0.000000,  0.000000)
   7 Pd ( 0.000000,  0.000000,  0.000000)
   8 Pd ( 0.000000,  0.000000,  0.000000)
   9 Pd ( 0.000000,  0.000000,  0.000000)
  10 Pd ( 0.000000,  0.000000,  0.000000)
  11 Pd ( 0.000000,  0.000000,  0.000000)
  12 Pd ( 0.000000,  0.000000, -0.000000)
  13 Pd ( 0.000000,  0.000000, -0.000000)
  14 Pd ( 0.000000,  0.000000, -0.000000)
  15 Pd ( 0.000000,  0.000000,  0.000000)
  16 Pd ( 0.000000,  0.000000,  0.000000)
  17 Pd ( 0.000000,  0.000000,  0.000000)
  18 Pd ( 0.000000,  0.000000,  0.000000)
  19 Pd ( 0.000000,  0.000000,  0.000000)
  20 Pd ( 0.000000,  0.000000,  0.000000)
  21 Pd ( 0.000000,  0.000000,  0.000000)
  22 Pd ( 0.000000,  0.000000,  0.000000)
  23 Pd ( 0.000000,  0.000000,  0.000000)
  24 Pd ( 0.000000,  0.000000,  0.000000)
  25 Pd ( 0.000000,  0.000000,  0.000000)
  26 Pd ( 0.000000,  0.000000, -0.000000)
  27 Pd ( 0.000000,  0.000000,  0.000000)
  28 Pd ( 0.000000,  0.000000,  0.000000)
  29 Pd ( 0.000000,  0.000000, -0.000000)
  30 Pd ( 0.000000,  0.000000, -0.000000)
  31 Pd ( 0.000000,  0.000000,  0.000000)
  32 Pd ( 0.000000,  0.000000,  0.000000)
  33 Pd ( 0.000000,  0.000000,  0.000000)
  34 Pd ( 0.000000,  0.000000,  0.000000)
  35 Pd ( 0.000000,  0.000000, -0.000000)
  36 O  ( 0.000000,  0.000000,  0.000000)
  37 H  ( 0.000000,  0.000000, -0.000000)

Energy contributions relative to reference atoms: (reference = -4942243.008314)

Kinetic:       -1967.507339
Potential:     +1727.064630
External:        +0.000000
XC:            +136.646557
Entropy (-ST):   -2.323411
Local:           +2.938101
SIC:             +0.000000
--------------------------
Free energy:   -103.181462
Extrapolated:  -102.019756

Spin contamination: 0.000000 electrons
Showing only first 2 kpts
                      Up                     Down
 Kpt  Band  Eigenvalues  Occupancy  Eigenvalues  Occupancy
  0   289     -6.55974    0.95022     -6.55974    0.95022
  0   290     -6.55511    0.94799     -6.55511    0.94799
  0   291     -6.53816    0.93896     -6.53816    0.93896
  0   292     -6.49972    0.91285     -6.49972    0.91285

  1   289     -6.30679    0.60339     -6.30679    0.60339
  1   290     -6.24023    0.43881     -6.24023    0.43881
  1   291     -6.15010    0.24097     -6.15010    0.24097
  1   292     -6.14867    0.23838     -6.14867    0.23838


Fermi level: -6.26483

No gap
No difference between direct/indirect transitions

Forces in eV/Ang:
  0 Pd    0.00377    0.00218   -0.49719
  1 Pd    0.00111   -0.00119   -0.51448
  2 Pd   -0.00243   -0.00049   -0.49476
  3 Pd   -0.00047    0.00155   -0.51448
  4 Pd   -0.00106   -0.00061   -0.49468
  5 Pd    0.00219   -0.00085   -0.48624
  6 Pd   -0.00164   -0.00186   -0.49476
  7 Pd    0.00036    0.00233   -0.48624
  8 Pd    0.00411    0.00237   -0.49494
  9 Pd   -0.02307   -0.01332    0.60739
 10 Pd    0.02965    0.01791    0.58876
 11 Pd   -0.00532    0.04967    0.60878
 12 Pd    0.03034    0.01672    0.58876
 13 Pd    0.03373    0.01947    0.73566
 14 Pd   -0.06385    0.01107    0.66904
 15 Pd    0.04036   -0.02944    0.60878
 16 Pd   -0.02234   -0.06083    0.66904
 17 Pd   -0.01691   -0.00976    0.53371
 18 Pd    0.06294   -0.03598   -0.00431
 19 Pd   -0.00903   -0.00521    0.05689
 20 Pd   -0.04396   -0.05764   -0.07003
 21 Pd    0.00989   -0.01048    0.03599
 22 Pd   -0.07190   -0.00925   -0.07003
 23 Pd    0.03548    0.02048   -0.23307
 24 Pd   -0.00079   -0.00046    0.09469
 25 Pd    0.00031    0.07250   -0.00431
 26 Pd   -0.00413    0.01381    0.03599
 27 Pd    0.01088    0.00628   -0.01506
 28 Pd   -0.04047    0.00692   -0.02336
 29 Pd    0.02438   -0.01093   -0.01161
 30 Pd   -0.01424   -0.03851   -0.02336
 31 Pd   -0.02875   -0.01660    0.01957
 32 Pd    0.04925   -0.10457   -0.07458
 33 Pd    0.00272    0.02658   -0.01161
 34 Pd   -0.06594    0.09494   -0.07458
 35 Pd    0.04045    0.02335    0.03661
 36 O    -0.02523   -0.01456   -0.76322
 37 H     0.04360    0.02517    0.16893

System changes: positions 

Initializing position-dependent things.

Density initialized from wave functions
                                           
                                           
                                           
                                           
                                           
                        O                  
                        H                  
                Pd     Pd     Pd           
                                           
            Pd   PPd    PPd    Pd          
       Pd     Pd    Pd                     
             Pd    Pd     Pd               
        Pd     Pd    Pd                    
                    Pd     Pd    Pd        
                Pd    Pd     Pd            
           Pd    Pd     Pd                 
                Pd     Pd     Pd           
            Pd    Pd     Pd                
       Pd     Pd    Pd                     
                                           
                                           
                                           
                                           

Atomic positions and initial magnetic moments

Positions:
   0 Pd     0.000000    0.000000   10.000000    ( 0.0000,  0.0000,  0.0000)
   1 Pd     2.715573    0.000000   10.000000    ( 0.0000,  0.0000,  0.0000)
   2 Pd     5.431146    0.000000   10.000000    ( 0.0000,  0.0000,  0.0000)
   3 Pd     1.357786    2.351755   10.000000    ( 0.0000,  0.0000,  0.0000)
   4 Pd     4.073359    2.351755   10.000000    ( 0.0000,  0.0000,  0.0000)
   5 Pd     6.788932    2.351755   10.000000    ( 0.0000,  0.0000,  0.0000)
   6 Pd     2.715573    4.703510   10.000000    ( 0.0000,  0.0000,  0.0000)
   7 Pd     5.431146    4.703510   10.000000    ( 0.0000,  0.0000,  0.0000)
   8 Pd     8.146719    4.703510   10.000000    ( 0.0000,  0.0000,  0.0000)
   9 Pd     1.357786    0.783918   12.217256    ( 0.0000,  0.0000,  0.0000)
  10 Pd     4.073359    0.783918   12.217256    ( 0.0000,  0.0000,  0.0000)
  11 Pd     6.788932    0.783918   12.217256    ( 0.0000,  0.0000,  0.0000)
  12 Pd     2.715573    3.135673   12.217256    ( 0.0000,  0.0000,  0.0000)
  13 Pd     5.431146    3.135673   12.217256    ( 0.0000,  0.0000,  0.0000)
  14 Pd     8.146719    3.135673   12.217256    ( 0.0000,  0.0000,  0.0000)
  15 Pd     4.073359    5.487429   12.217256    ( 0.0000,  0.0000,  0.0000)
  16 Pd     6.788932    5.487429   12.217256    ( 0.0000,  0.0000,  0.0000)
  17 Pd     9.504505    5.487429   12.217256    ( 0.0000,  0.0000,  0.0000)
  18 Pd    -0.007272    1.571322   14.497904    ( 0.0000,  0.0000,  0.0000)
  19 Pd     2.717394    1.568887   14.480629    ( 0.0000,  0.0000,  0.0000)
  20 Pd     5.434521    1.573112   14.507340    ( 0.0000,  0.0000,  0.0000)
  21 Pd     1.352750    3.920286   14.479499    ( 0.0000,  0.0000,  0.0000)
  22 Pd     4.079617    3.919876   14.507340    ( 0.0000,  0.0000,  0.0000)
  23 Pd     6.781567    3.915338   14.550809    ( 0.0000,  0.0000,  0.0000)
  24 Pd     2.716207    6.271712   14.469056    ( 0.0000,  0.0000,  0.0000)
  25 Pd     5.430529    6.263305   14.497905    ( 0.0000,  0.0000,  0.0000)
  26 Pd     8.144802    6.266637   14.479499    ( 0.0000,  0.0000,  0.0000)
  27 Pd    -0.004943   -0.002855   16.801317    ( 0.0000,  0.0000,  0.0000)
  28 Pd     2.725640    0.008525   16.790720    ( 0.0000,  0.0000,  0.0000)
  29 Pd     5.418646   -0.012847   16.787679    ( 0.0000,  0.0000,  0.0000)
  30 Pd     1.370204    2.356208   16.790720    ( 0.0000,  0.0000,  0.0000)
  31 Pd     4.088594    2.360549   16.810680    ( 0.0000,  0.0000,  0.0000)
  32 Pd     6.795326    2.330140   16.805657    ( 0.0000,  0.0000,  0.0000)
  33 Pd     2.698199    4.699107   16.787679    ( 0.0000,  0.0000,  0.0000)
  34 Pd     5.415625    4.719853   16.805658    ( 0.0000,  0.0000,  0.0000)
  35 Pd     8.125283    4.691133   16.807033    ( 0.0000,  0.0000,  0.0000)
  36 O      6.103647    3.523943   19.247617    ( 0.0000,  0.0000,  0.0000)
  37 H      6.136948    3.543166   18.194373    ( 0.0000,  0.0000,  0.0000)

Unit cell:
           periodic     x           y           z      points  spacing
  1. axis:    yes    8.146719    0.000000    0.000000    36     0.1960
  2. axis:    yes    4.073359    7.055265    0.000000    36     0.1960
  3. axis:    no     0.000000    0.000000   26.651768   132     0.2019

  Lengths:   8.146719   8.146719  26.651768
  Angles:   90.000000  90.000000  60.000000

Effective grid spacing dv^(1/3) = 0.2077

     iter     time        total  log10-change:  magmom
                         energy   eigst   dens
iter:   1 23:29:31  -102.082774        c          +0.0000
iter:   2 23:39:06  -102.332778        c -3.07    +0.0000
iter:   3 23:49:20  -102.089750c       c -2.40    +0.0000
iter:   4 23:58:20  -102.072118c       c -3.01    +0.0000
iter:   5 00:06:16  -102.072168c       c -3.61    +0.0000
iter:   6 00:14:05  -102.071879c       c -3.79    +0.0000
iter:   7 00:22:04  -102.071847c       c -3.88    +0.0000
iter:   8 00:29:40  -102.071870c       c -3.83    +0.0000
iter:   9 00:37:32  -102.072001c       c -4.34c   +0.0000

Converged after 9 iterations.

Dipole moment: (-12.869744, -7.430211, -0.718880) |e|*Ang

Total magnetic moment: (0.000000, 0.000000, 0.000000)
Local magnetic moments:
   0 Pd ( 0.000000,  0.000000,  0.000000)
   1 Pd ( 0.000000,  0.000000, -0.000000)
   2 Pd ( 0.000000,  0.000000,  0.000000)
   3 Pd ( 0.000000,  0.000000,  0.000000)
   4 Pd ( 0.000000,  0.000000,  0.000000)
   5 Pd ( 0.000000,  0.000000,  0.000000)
   6 Pd ( 0.000000,  0.000000,  0.000000)
   7 Pd ( 0.000000,  0.000000,  0.000000)
   8 Pd ( 0.000000,  0.000000,  0.000000)
   9 Pd ( 0.000000,  0.000000,  0.000000)
  10 Pd ( 0.000000,  0.000000, -0.000000)
  11 Pd ( 0.000000,  0.000000,  0.000000)
  12 Pd ( 0.000000,  0.000000, -0.000000)
  13 Pd ( 0.000000,  0.000000,  0.000000)
  14 Pd ( 0.000000,  0.000000,  0.000000)
  15 Pd ( 0.000000,  0.000000,  0.000000)
  16 Pd ( 0.000000,  0.000000,  0.000000)
  17 Pd ( 0.000000,  0.000000,  0.000000)
  18 Pd ( 0.000000,  0.000000,  0.000000)
  19 Pd ( 0.000000,  0.000000,  0.000000)
  20 Pd ( 0.000000,  0.000000,  0.000000)
  21 Pd ( 0.000000,  0.000000,  0.000000)
  22 Pd ( 0.000000,  0.000000,  0.000000)
  23 Pd ( 0.000000,  0.000000,  0.000000)
  24 Pd ( 0.000000,  0.000000, -0.000000)
  25 Pd ( 0.000000,  0.000000,  0.000000)
  26 Pd ( 0.000000,  0.000000,  0.000000)
  27 Pd ( 0.000000,  0.000000,  0.000000)
  28 Pd ( 0.000000,  0.000000,  0.000000)
  29 Pd ( 0.000000,  0.000000,  0.000000)
  30 Pd ( 0.000000,  0.000000,  0.000000)
  31 Pd ( 0.000000,  0.000000,  0.000000)
  32 Pd ( 0.000000,  0.000000,  0.000000)
  33 Pd ( 0.000000,  0.000000,  0.000000)
  34 Pd ( 0.000000,  0.000000,  0.000000)
  35 Pd ( 0.000000,  0.000000,  0.000000)
  36 O  ( 0.000000,  0.000000,  0.000000)
  37 H  ( 0.000000,  0.000000, -0.000000)

Energy contributions relative to reference atoms: (reference = -4942243.008314)

Kinetic:       -1959.965107
Potential:     +1720.357866
External:        +0.000000
XC:            +135.722671
Entropy (-ST):   -2.319020
Local:           +2.972079
SIC:             +0.000000
--------------------------
Free energy:   -103.231511
Extrapolated:  -102.072001

Spin contamination: 0.000000 electrons
Showing only first 2 kpts
                      Up                     Down
 Kpt  Band  Eigenvalues  Occupancy  Eigenvalues  Occupancy
  0   289     -6.53517    0.95002     -6.53517    0.95002
  0   290     -6.53088    0.94794     -6.53088    0.94794
  0   291     -6.51444    0.93921     -6.51444    0.93921
  0   292     -6.47975    0.91612     -6.47975    0.91612

  1   289     -6.27952    0.59590     -6.27952    0.59590
  1   290     -6.21909    0.44624     -6.21909    0.44624
  1   291     -6.12786    0.24448     -6.12786    0.24448
  1   292     -6.12196    0.23376     -6.12196    0.23376


Fermi level: -6.24068

No gap
No difference between direct/indirect transitions

Forces in eV/Ang:
  0 Pd    0.00181    0.00105   -0.49597
  1 Pd    0.00286   -0.00175   -0.51635
  2 Pd   -0.00165   -0.00175   -0.49479
  3 Pd   -0.00009    0.00335   -0.51635
  4 Pd   -0.00019   -0.00011   -0.49714
  5 Pd    0.00160   -0.00118   -0.48802
  6 Pd   -0.00234   -0.00055   -0.49479
  7 Pd   -0.00023    0.00198   -0.48802
  8 Pd    0.00561    0.00324   -0.49605
  9 Pd   -0.02698   -0.01558    0.58321
 10 Pd    0.03143    0.01928    0.56594
 11 Pd   -0.00684    0.05216    0.57889
 12 Pd    0.03241    0.01758    0.56594
 13 Pd    0.04566    0.02636    0.72650
 14 Pd   -0.08010    0.01987    0.66351
 15 Pd    0.04175   -0.03200    0.57889
 16 Pd   -0.02285   -0.07931    0.66351
 17 Pd   -0.01961   -0.01132    0.50247
 18 Pd    0.10540   -0.06148   -0.00326
 19 Pd    0.00090    0.00052    0.14076
 20 Pd   -0.08337   -0.10219   -0.13948
 21 Pd    0.01348   -0.01203    0.09280
 22 Pd   -0.13018   -0.02111   -0.13948
 23 Pd    0.08538    0.04929   -0.55304
 24 Pd   -0.00349   -0.00201    0.19082
 25 Pd   -0.00054    0.12202   -0.00326
 26 Pd   -0.00368    0.01769    0.09280
 27 Pd    0.02414    0.01394   -0.10300
 28 Pd   -0.09449   -0.01468   -0.09797
 29 Pd    0.06993    0.00743   -0.07047
 30 Pd   -0.05996   -0.07449   -0.09797
 31 Pd   -0.11376   -0.06568    0.05352
 32 Pd    0.12221   -0.25234    0.11287
 33 Pd    0.04139    0.05685   -0.07047
 34 Pd   -0.15743    0.23201    0.11288
 35 Pd    0.14029    0.08099    0.10060
 36 O    -0.05019   -0.02897   -0.82851
 37 H     0.09397    0.05425    0.16881

System changes: positions 

Initializing position-dependent things.

Density initialized from wave functions
                                           
                                           
                                           
                                           
                                           
                        O                  
                        H                  
                Pd     Pd     Pd           
                                           
            Pd   PPd    PPd    Pd          
       Pd     Pd    Pd                     
             Pd    Pd     Pd               
        Pd     Pd   PPd    Pd    Pd        
                                           
                Pd    Pd     Pd            
           Pd    Pd     Pd                 
                Pd     Pd     Pd           
            Pd    Pd     Pd                
       Pd     Pd    Pd                     
                                           
                                           
                                           
                                           

Atomic positions and initial magnetic moments

Positions:
   0 Pd     0.000000    0.000000   10.000000    ( 0.0000,  0.0000,  0.0000)
   1 Pd     2.715573    0.000000   10.000000    ( 0.0000,  0.0000,  0.0000)
   2 Pd     5.431146    0.000000   10.000000    ( 0.0000,  0.0000,  0.0000)
   3 Pd     1.357786    2.351755   10.000000    ( 0.0000,  0.0000,  0.0000)
   4 Pd     4.073359    2.351755   10.000000    ( 0.0000,  0.0000,  0.0000)
   5 Pd     6.788932    2.351755   10.000000    ( 0.0000,  0.0000,  0.0000)
   6 Pd     2.715573    4.703510   10.000000    ( 0.0000,  0.0000,  0.0000)
   7 Pd     5.431146    4.703510   10.000000    ( 0.0000,  0.0000,  0.0000)
   8 Pd     8.146719    4.703510   10.000000    ( 0.0000,  0.0000,  0.0000)
   9 Pd     1.357786    0.783918   12.217256    ( 0.0000,  0.0000,  0.0000)
  10 Pd     4.073359    0.783918   12.217256    ( 0.0000,  0.0000,  0.0000)
  11 Pd     6.788932    0.783918   12.217256    ( 0.0000,  0.0000,  0.0000)
  12 Pd     2.715573    3.135673   12.217256    ( 0.0000,  0.0000,  0.0000)
  13 Pd     5.431146    3.135673   12.217256    ( 0.0000,  0.0000,  0.0000)
  14 Pd     8.146719    3.135673   12.217256    ( 0.0000,  0.0000,  0.0000)
  15 Pd     4.073359    5.487429   12.217256    ( 0.0000,  0.0000,  0.0000)
  16 Pd     6.788932    5.487429   12.217256    ( 0.0000,  0.0000,  0.0000)
  17 Pd     9.504505    5.487429   12.217256    ( 0.0000,  0.0000,  0.0000)
  18 Pd    -0.002901    1.568004   14.488363    ( 0.0000,  0.0000,  0.0000)
  19 Pd     2.714144    1.567011   14.471667    ( 0.0000,  0.0000,  0.0000)
  20 Pd     5.430317    1.568532   14.497012    ( 0.0000,  0.0000,  0.0000)
  21 Pd     1.352413    3.918652   14.471985    ( 0.0000,  0.0000,  0.0000)
  22 Pd     4.073548    3.918525   14.497012    ( 0.0000,  0.0000,  0.0000)
  23 Pd     6.781291    3.915179   14.551537    ( 0.0000,  0.0000,  0.0000)
  24 Pd     2.716158    6.271684   14.464409    ( 0.0000,  0.0000,  0.0000)
  25 Pd     5.429841    6.268749   14.488364    ( 0.0000,  0.0000,  0.0000)
  26 Pd     8.143219    6.267162   14.471985    ( 0.0000,  0.0000,  0.0000)
  27 Pd    -0.007840   -0.004528   16.817220    ( 0.0000,  0.0000,  0.0000)
  28 Pd     2.731584    0.017489   16.800617    ( 0.0000,  0.0000,  0.0000)
  29 Pd     5.410709   -0.022365   16.796167    ( 0.0000,  0.0000,  0.0000)
  30 Pd     1.380939    2.356874   16.800617    ( 0.0000,  0.0000,  0.0000)
  31 Pd     4.099904    2.367079   16.793754    ( 0.0000,  0.0000,  0.0000)
  32 Pd     6.796860    2.323653   16.704005    ( 0.0000,  0.0000,  0.0000)
  33 Pd     2.685988    4.696991   16.796167    ( 0.0000,  0.0000,  0.0000)
  34 Pd     5.410774    4.724425   16.704007    ( 0.0000,  0.0000,  0.0000)
  35 Pd     8.114377    4.684836   16.787936    ( 0.0000,  0.0000,  0.0000)
  36 O      6.097242    3.520246   19.077276    ( 0.0000,  0.0000,  0.0000)
  37 H      6.157383    3.554962   18.041940    ( 0.0000,  0.0000,  0.0000)

Unit cell:
           periodic     x           y           z      points  spacing
  1. axis:    yes    8.146719    0.000000    0.000000    36     0.1960
  2. axis:    yes    4.073359    7.055265    0.000000    36     0.1960
  3. axis:    no     0.000000    0.000000   26.651768   132     0.2019

  Lengths:   8.146719   8.146719  26.651768
  Angles:   90.000000  90.000000  60.000000

Effective grid spacing dv^(1/3) = 0.2077

     iter     time        total  log10-change:  magmom
                         energy   eigst   dens
iter:   1 00:59:59  -102.168175        c          +0.0000
iter:   2 01:07:52  -103.472408        c -2.67    +0.0000
iter:   3 01:15:20  -103.645062        c -2.06    +0.0000
iter:   4 01:23:22  -102.104646        c -2.04    +0.0000
iter:   5 01:31:10  -102.083833        c -3.01    +0.0000
iter:   6 01:38:47  -102.081762c       c -3.41    +0.0000
iter:   7 01:46:42  -102.081296c       c -3.50    +0.0000
iter:   8 01:54:41  -102.080249c       c -3.50    +0.0000
iter:   9 02:02:18  -102.080147c       c -3.88    +0.0000
iter:  10 02:09:52  -102.080284c       c -4.05c   +0.0000

Converged after 10 iterations.

Dipole moment: (-12.565401, -7.254481, -0.675317) |e|*Ang

Total magnetic moment: (0.000000, 0.000000, 0.000000)
Local magnetic moments:
   0 Pd ( 0.000000,  0.000000, -0.000000)
   1 Pd ( 0.000000,  0.000000,  0.000000)
   2 Pd ( 0.000000,  0.000000,  0.000000)
   3 Pd ( 0.000000,  0.000000,  0.000000)
   4 Pd ( 0.000000,  0.000000,  0.000000)
   5 Pd ( 0.000000,  0.000000,  0.000000)
   6 Pd ( 0.000000,  0.000000,  0.000000)
   7 Pd ( 0.000000,  0.000000, -0.000000)
   8 Pd ( 0.000000,  0.000000,  0.000000)
   9 Pd ( 0.000000,  0.000000,  0.000000)
  10 Pd ( 0.000000,  0.000000,  0.000000)
  11 Pd ( 0.000000,  0.000000,  0.000000)
  12 Pd ( 0.000000,  0.000000,  0.000000)
  13 Pd ( 0.000000,  0.000000,  0.000000)
  14 Pd ( 0.000000,  0.000000,  0.000000)
  15 Pd ( 0.000000,  0.000000,  0.000000)
  16 Pd ( 0.000000,  0.000000,  0.000000)
  17 Pd ( 0.000000,  0.000000,  0.000000)
  18 Pd ( 0.000000,  0.000000,  0.000000)
  19 Pd ( 0.000000,  0.000000,  0.000000)
  20 Pd ( 0.000000,  0.000000,  0.000000)
  21 Pd ( 0.000000,  0.000000,  0.000000)
  22 Pd ( 0.000000,  0.000000,  0.000000)
  23 Pd ( 0.000000,  0.000000,  0.000000)
  24 Pd ( 0.000000,  0.000000,  0.000000)
  25 Pd ( 0.000000,  0.000000,  0.000000)
  26 Pd ( 0.000000,  0.000000,  0.000000)
  27 Pd ( 0.000000,  0.000000,  0.000000)
  28 Pd ( 0.000000,  0.000000,  0.000000)
  29 Pd ( 0.000000,  0.000000,  0.000000)
  30 Pd ( 0.000000,  0.000000,  0.000000)
  31 Pd ( 0.000000,  0.000000,  0.000000)
  32 Pd ( 0.000000,  0.000000,  0.000000)
  33 Pd ( 0.000000,  0.000000,  0.000000)
  34 Pd ( 0.000000,  0.000000,  0.000000)
  35 Pd ( 0.000000,  0.000000,  0.000000)
  36 O  ( 0.000000,  0.000000,  0.000000)
  37 H  ( 0.000000,  0.000000, -0.000000)

Energy contributions relative to reference atoms: (reference = -4942243.008314)

Kinetic:       -1945.219401
Potential:     +1707.430285
External:        +0.000000
XC:            +133.875011
Entropy (-ST):   -2.314390
Local:           +2.991016
SIC:             +0.000000
--------------------------
Free energy:   -103.237479
Extrapolated:  -102.080284

Spin contamination: 0.000000 electrons
Showing only first 2 kpts
                      Up                     Down
 Kpt  Band  Eigenvalues  Occupancy  Eigenvalues  Occupancy
  0   289     -6.48450    0.94727     -6.48450    0.94727
  0   290     -6.48121    0.94560     -6.48121    0.94560
  0   291     -6.46707    0.93785     -6.46707    0.93785
  0   292     -6.44222    0.92169     -6.44222    0.92169

  1   289     -6.23241    0.59085     -6.23241    0.59085
  1   290     -6.18075    0.46280     -6.18075    0.46280
  1   291     -6.09034    0.25860     -6.09034    0.25860
  1   292     -6.07891    0.23730     -6.07891    0.23730


Fermi level: -6.19566

No gap
No difference between direct/indirect transitions

Forces in eV/Ang:
  0 Pd   -0.00374   -0.00216   -0.49289
  1 Pd    0.00747   -0.00508   -0.51366
  2 Pd    0.00018   -0.00551   -0.49613
  3 Pd   -0.00066    0.00901   -0.51366
  4 Pd    0.00260    0.00150   -0.49755
  5 Pd    0.00058   -0.00132   -0.48885
  6 Pd   -0.00468    0.00291   -0.49613
  7 Pd   -0.00085    0.00117   -0.48885
  8 Pd    0.00910    0.00526   -0.49871
  9 Pd   -0.02878   -0.01662    0.53251
 10 Pd    0.02629    0.01830    0.52107
 11 Pd   -0.00538    0.04827    0.52902
 12 Pd    0.02900    0.01362    0.52107
 13 Pd    0.05637    0.03255    0.68618
 14 Pd   -0.09348    0.02742    0.63467
 15 Pd    0.03911   -0.02879    0.52902
 16 Pd   -0.02299   -0.09466    0.63467
 17 Pd   -0.02025   -0.01169    0.46297
 18 Pd    0.17850   -0.10584   -0.06620
 19 Pd    0.02360    0.01362    0.25342
 20 Pd   -0.15783   -0.16205   -0.27375
 21 Pd    0.01287   -0.00769    0.17295
 22 Pd   -0.21926   -0.05566   -0.27375
 23 Pd    0.18574    0.10724   -1.11758
 24 Pd   -0.00713   -0.00412    0.30359
 25 Pd   -0.00241    0.20750   -0.06620
 26 Pd   -0.00023    0.01499    0.17295
 27 Pd    0.04377    0.02527   -0.20992
 28 Pd   -0.16612   -0.05629   -0.19518
 29 Pd    0.12726    0.05011   -0.14334
 30 Pd   -0.13181   -0.11572   -0.19518
 31 Pd   -0.20832   -0.12028    0.13185
 32 Pd    0.22290   -0.48347    0.56143
 33 Pd    0.10702    0.08516   -0.14334
 34 Pd   -0.30724    0.43477    0.56144
 35 Pd    0.24634    0.14222    0.19641
 36 O    -0.16337   -0.09430   -0.20509
 37 H     0.19441    0.11223   -0.18167

System changes: positions 

Initializing position-dependent things.

Density initialized from wave functions
                                           
                                           
                                           
                                           
                                           
                        O                  
                        H                  
                Pd     Pd     Pd           
                                           
            Pd   PPd    PPd    Pd          
       Pd     Pd    Pd                     
             Pd    Pd     Pd               
        Pd     Pd   PPd    Pd    Pd        
                                           
                Pd    Pd     Pd            
           Pd    Pd     Pd                 
                Pd     Pd     Pd           
            Pd    Pd     Pd                
       Pd     Pd    Pd                     
                                           
                                           
                                           
                                           

Atomic positions and initial magnetic moments

Positions:
   0 Pd     0.000000    0.000000   10.000000    ( 0.0000,  0.0000,  0.0000)
   1 Pd     2.715573    0.000000   10.000000    ( 0.0000,  0.0000,  0.0000)
   2 Pd     5.431146    0.000000   10.000000    ( 0.0000,  0.0000,  0.0000)
   3 Pd     1.357786    2.351755   10.000000    ( 0.0000,  0.0000,  0.0000)
   4 Pd     4.073359    2.351755   10.000000    ( 0.0000,  0.0000,  0.0000)
   5 Pd     6.788932    2.351755   10.000000    ( 0.0000,  0.0000,  0.0000)
   6 Pd     2.715573    4.703510   10.000000    ( 0.0000,  0.0000,  0.0000)
   7 Pd     5.431146    4.703510   10.000000    ( 0.0000,  0.0000,  0.0000)
   8 Pd     8.146719    4.703510   10.000000    ( 0.0000,  0.0000,  0.0000)
   9 Pd     1.357786    0.783918   12.217256    ( 0.0000,  0.0000,  0.0000)
  10 Pd     4.073359    0.783918   12.217256    ( 0.0000,  0.0000,  0.0000)
  11 Pd     6.788932    0.783918   12.217256    ( 0.0000,  0.0000,  0.0000)
  12 Pd     2.715573    3.135673   12.217256    ( 0.0000,  0.0000,  0.0000)
  13 Pd     5.431146    3.135673   12.217256    ( 0.0000,  0.0000,  0.0000)
  14 Pd     8.146719    3.135673   12.217256    ( 0.0000,  0.0000,  0.0000)
  15 Pd     4.073359    5.487429   12.217256    ( 0.0000,  0.0000,  0.0000)
  16 Pd     6.788932    5.487429   12.217256    ( 0.0000,  0.0000,  0.0000)
  17 Pd     9.504505    5.487429   12.217256    ( 0.0000,  0.0000,  0.0000)
  18 Pd    -0.002120    1.567777   14.490761    ( 0.0000,  0.0000,  0.0000)
  19 Pd     2.715321    1.567690   14.477342    ( 0.0000,  0.0000,  0.0000)
  20 Pd     5.429819    1.567988   14.497141    ( 0.0000,  0.0000,  0.0000)
  21 Pd     1.352718    3.919010   14.476270    ( 0.0000,  0.0000,  0.0000)
  22 Pd     4.072828    3.918365   14.497142    ( 0.0000,  0.0000,  0.0000)
  23 Pd     6.783393    3.916393   14.538956    ( 0.0000,  0.0000,  0.0000)
  24 Pd     2.716097    6.271649   14.469499    ( 0.0000,  0.0000,  0.0000)
  25 Pd     5.430035    6.269538   14.490761    ( 0.0000,  0.0000,  0.0000)
  26 Pd     8.143681    6.267247   14.476270    ( 0.0000,  0.0000,  0.0000)
  27 Pd    -0.006434   -0.003716   16.810063    ( 0.0000,  0.0000,  0.0000)
  28 Pd     2.727820    0.014196   16.795443    ( 0.0000,  0.0000,  0.0000)
  29 Pd     5.414612   -0.018994   16.792017    ( 0.0000,  0.0000,  0.0000)
  30 Pd     1.376205    2.355261   16.795443    ( 0.0000,  0.0000,  0.0000)
  31 Pd     4.094087    2.363721   16.800425    ( 0.0000,  0.0000,  0.0000)
  32 Pd     6.798903    2.320265   16.740542    ( 0.0000,  0.0000,  0.0000)
  33 Pd     2.690858    4.698686   16.792017    ( 0.0000,  0.0000,  0.0000)
  34 Pd     5.408862    4.727888   16.740543    ( 0.0000,  0.0000,  0.0000)
  35 Pd     8.120532    4.688390   16.796070    ( 0.0000,  0.0000,  0.0000)
  36 O      6.097591    3.520447   19.122257    ( 0.0000,  0.0000,  0.0000)
  37 H      6.153152    3.552520   18.089629    ( 0.0000,  0.0000,  0.0000)

Unit cell:
           periodic     x           y           z      points  spacing
  1. axis:    yes    8.146719    0.000000    0.000000    36     0.1960
  2. axis:    yes    4.073359    7.055265    0.000000    36     0.1960
  3. axis:    no     0.000000    0.000000   26.651768   132     0.2019

  Lengths:   8.146719   8.146719  26.651768
  Angles:   90.000000  90.000000  60.000000

Effective grid spacing dv^(1/3) = 0.2077

     iter     time        total  log10-change:  magmom
                         energy   eigst   dens
iter:   1 02:32:11  -102.130931        c          +0.0000
iter:   2 02:41:15  -102.193203        c -3.24    +0.0000
iter:   3 02:48:12  -102.152156c       c -2.70    +0.0000
iter:   4 02:56:19  -102.126810c       c -2.88    +0.0000
iter:   5 03:04:12  -102.126297c       c -3.47    +0.0000
iter:   6 03:11:55  -102.125360c       c -3.75    +0.0000
iter:   7 03:20:06  -102.125286c       c -4.01c   +0.0000

Converged after 7 iterations.

Dipole moment: (-12.613476, -7.282246, -0.692479) |e|*Ang

Total magnetic moment: (0.000000, 0.000000, 0.000000)
Local magnetic moments:
   0 Pd ( 0.000000,  0.000000, -0.000000)
   1 Pd ( 0.000000,  0.000000,  0.000000)
   2 Pd ( 0.000000,  0.000000,  0.000000)
   3 Pd ( 0.000000,  0.000000,  0.000000)
   4 Pd ( 0.000000,  0.000000,  0.000000)
   5 Pd ( 0.000000,  0.000000,  0.000000)
   6 Pd ( 0.000000,  0.000000,  0.000000)
   7 Pd ( 0.000000,  0.000000,  0.000000)
   8 Pd ( 0.000000,  0.000000,  0.000000)
   9 Pd ( 0.000000,  0.000000,  0.000000)
  10 Pd ( 0.000000,  0.000000,  0.000000)
  11 Pd ( 0.000000,  0.000000,  0.000000)
  12 Pd ( 0.000000,  0.000000,  0.000000)
  13 Pd ( 0.000000,  0.000000,  0.000000)
  14 Pd ( 0.000000,  0.000000,  0.000000)
  15 Pd ( 0.000000,  0.000000,  0.000000)
  16 Pd ( 0.000000,  0.000000,  0.000000)
  17 Pd ( 0.000000,  0.000000,  0.000000)
  18 Pd ( 0.000000,  0.000000,  0.000000)
  19 Pd ( 0.000000,  0.000000,  0.000000)
  20 Pd ( 0.000000,  0.000000,  0.000000)
  21 Pd ( 0.000000,  0.000000,  0.000000)
  22 Pd ( 0.000000,  0.000000,  0.000000)
  23 Pd ( 0.000000,  0.000000,  0.000000)
  24 Pd ( 0.000000,  0.000000,  0.000000)
  25 Pd ( 0.000000,  0.000000,  0.000000)
  26 Pd ( 0.000000,  0.000000,  0.000000)
  27 Pd ( 0.000000,  0.000000,  0.000000)
  28 Pd ( 0.000000,  0.000000,  0.000000)
  29 Pd ( 0.000000,  0.000000,  0.000000)
  30 Pd ( 0.000000,  0.000000,  0.000000)
  31 Pd ( 0.000000,  0.000000,  0.000000)
  32 Pd ( 0.000000,  0.000000,  0.000000)
  33 Pd ( 0.000000,  0.000000,  0.000000)
  34 Pd ( 0.000000,  0.000000,  0.000000)
  35 Pd ( 0.000000,  0.000000,  0.000000)
  36 O  ( 0.000000,  0.000000,  0.000000)
  37 H  ( 0.000000,  0.000000, -0.000000)

Energy contributions relative to reference atoms: (reference = -4942243.008314)

Kinetic:       -1947.416983
Potential:     +1709.169951
External:        +0.000000
XC:            +134.314624
Entropy (-ST):   -2.311448
Local:           +2.962845
SIC:             +0.000000
--------------------------
Free energy:   -103.281010
Extrapolated:  -102.125286

Spin contamination: 0.000000 electrons
Showing only first 2 kpts
                      Up                     Down
 Kpt  Band  Eigenvalues  Occupancy  Eigenvalues  Occupancy
  0   289     -6.50195    0.94845     -6.50195    0.94845
  0   290     -6.49744    0.94620     -6.49744    0.94620
  0   291     -6.48529    0.93967     -6.48529    0.93967
  0   292     -6.45746    0.92182     -6.45746    0.92182

  1   289     -6.24774    0.59149     -6.24774    0.59149
  1   290     -6.19200    0.45333     -6.19200    0.45333
  1   291     -6.10078    0.24986     -6.10078    0.24986
  1   292     -6.09210    0.23394     -6.09210    0.23394


Fermi level: -6.21072

No gap
No difference between direct/indirect transitions

Forces in eV/Ang:
  0 Pd    0.00113    0.00065   -0.48022
  1 Pd    0.00442   -0.00406   -0.50092
  2 Pd   -0.00171   -0.00236   -0.48144
  3 Pd   -0.00130    0.00586   -0.50092
  4 Pd    0.00235    0.00136   -0.48539
  5 Pd    0.00120   -0.00073   -0.47789
  6 Pd   -0.00290   -0.00030   -0.48144
  7 Pd   -0.00004    0.00141   -0.47789
  8 Pd    0.00648    0.00374   -0.48565
  9 Pd   -0.03068   -0.01772    0.56442
 10 Pd    0.02913    0.01689    0.54469
 11 Pd   -0.00705    0.04455    0.55024
 12 Pd    0.02919    0.01678    0.54469
 13 Pd    0.04829    0.02788    0.67663
 14 Pd   -0.08158    0.02262    0.63495
 15 Pd    0.03506   -0.02838    0.55024
 16 Pd   -0.02120   -0.08196    0.63495
 17 Pd   -0.01517   -0.00876    0.49084
 18 Pd    0.09402   -0.06675   -0.03420
 19 Pd    0.01922    0.01110    0.18056
 20 Pd   -0.08418   -0.10216   -0.18442
 21 Pd    0.01165    0.00648    0.11595
 22 Pd   -0.13056   -0.02183   -0.18442
 23 Pd    0.09393    0.05423   -0.70672
 24 Pd   -0.01299   -0.00750    0.19930
 25 Pd   -0.01079    0.11479   -0.03420
 26 Pd    0.01143    0.00685    0.11595
 27 Pd    0.03052    0.01762   -0.15862
 28 Pd   -0.10432   -0.02789   -0.14181
 29 Pd    0.07348    0.02864   -0.11734
 30 Pd   -0.07631   -0.07640   -0.14181
 31 Pd   -0.15126   -0.08733    0.09363
 32 Pd    0.14985   -0.30497    0.31773
 33 Pd    0.06154    0.04932   -0.11734
 34 Pd   -0.18918    0.28225    0.31774
 35 Pd    0.16304    0.09413    0.13044
 36 O    -0.10929   -0.06308   -0.18971
 37 H     0.19108    0.11031   -0.35247

System changes: positions 

Initializing position-dependent things.

Density initialized from wave functions
                                           
                                           
                                           
                                           
                                           
                        O                  
                        H                  
                Pd     Pd     Pd           
                                           
            Pd   PPd    PPd    Pd          
       Pd     Pd    Pd                     
             Pd    Pd     Pd               
        Pd     Pd   PPd    Pd    Pd        
                                           
                Pd    Pd     Pd            
           Pd    Pd     Pd                 
                Pd     Pd     Pd           
            Pd    Pd     Pd                
       Pd     Pd    Pd                     
                                           
                                           
                                           
                                           

Atomic positions and initial magnetic moments

Positions:
   0 Pd     0.000000    0.000000   10.000000    ( 0.0000,  0.0000,  0.0000)
   1 Pd     2.715573    0.000000   10.000000    ( 0.0000,  0.0000,  0.0000)
   2 Pd     5.431146    0.000000   10.000000    ( 0.0000,  0.0000,  0.0000)
   3 Pd     1.357786    2.351755   10.000000    ( 0.0000,  0.0000,  0.0000)
   4 Pd     4.073359    2.351755   10.000000    ( 0.0000,  0.0000,  0.0000)
   5 Pd     6.788932    2.351755   10.000000    ( 0.0000,  0.0000,  0.0000)
   6 Pd     2.715573    4.703510   10.000000    ( 0.0000,  0.0000,  0.0000)
   7 Pd     5.431146    4.703510   10.000000    ( 0.0000,  0.0000,  0.0000)
   8 Pd     8.146719    4.703510   10.000000    ( 0.0000,  0.0000,  0.0000)
   9 Pd     1.357786    0.783918   12.217256    ( 0.0000,  0.0000,  0.0000)
  10 Pd     4.073359    0.783918   12.217256    ( 0.0000,  0.0000,  0.0000)
  11 Pd     6.788932    0.783918   12.217256    ( 0.0000,  0.0000,  0.0000)
  12 Pd     2.715573    3.135673   12.217256    ( 0.0000,  0.0000,  0.0000)
  13 Pd     5.431146    3.135673   12.217256    ( 0.0000,  0.0000,  0.0000)
  14 Pd     8.146719    3.135673   12.217256    ( 0.0000,  0.0000,  0.0000)
  15 Pd     4.073359    5.487429   12.217256    ( 0.0000,  0.0000,  0.0000)
  16 Pd     6.788932    5.487429   12.217256    ( 0.0000,  0.0000,  0.0000)
  17 Pd     9.504505    5.487429   12.217256    ( 0.0000,  0.0000,  0.0000)
  18 Pd     0.002136    1.564940   14.488550    ( 0.0000,  0.0000,  0.0000)
  19 Pd     2.715572    1.567835   14.482868    ( 0.0000,  0.0000,  0.0000)
  20 Pd     5.426075    1.563711   14.489577    ( 0.0000,  0.0000,  0.0000)
  21 Pd     1.353097    3.918887   14.479756    ( 0.0000,  0.0000,  0.0000)
  22 Pd     4.067252    3.917261   14.489578    ( 0.0000,  0.0000,  0.0000)
  23 Pd     6.787116    3.918542   14.513330    ( 0.0000,  0.0000,  0.0000)
  24 Pd     2.715758    6.271452   14.476448    ( 0.0000,  0.0000,  0.0000)
  25 Pd     5.429706    6.274643   14.488551    ( 0.0000,  0.0000,  0.0000)
  26 Pd     8.143765    6.267637   14.479756    ( 0.0000,  0.0000,  0.0000)
  27 Pd    -0.005627   -0.003250   16.806197    ( 0.0000,  0.0000,  0.0000)
  28 Pd     2.724550    0.014020   16.791442    ( 0.0000,  0.0000,  0.0000)
  29 Pd     5.416616   -0.018919   16.788899    ( 0.0000,  0.0000,  0.0000)
  30 Pd     1.374418    2.352517   16.791442    ( 0.0000,  0.0000,  0.0000)
  31 Pd     4.090240    2.361500   16.802087    ( 0.0000,  0.0000,  0.0000)
  32 Pd     6.804187    2.308880   16.742330    ( 0.0000,  0.0000,  0.0000)
  33 Pd     2.691925    4.700384   16.788899    ( 0.0000,  0.0000,  0.0000)
  34 Pd     5.401644    4.738157   16.742332    ( 0.0000,  0.0000,  0.0000)
  35 Pd     8.125022    4.690982   16.798908    ( 0.0000,  0.0000,  0.0000)
  36 O      6.093116    3.517864   19.094392    ( 0.0000,  0.0000,  0.0000)
  37 H      6.160971    3.557034   18.068554    ( 0.0000,  0.0000,  0.0000)

Unit cell:
           periodic     x           y           z      points  spacing
  1. axis:    yes    8.146719    0.000000    0.000000    36     0.1960
  2. axis:    yes    4.073359    7.055265    0.000000    36     0.1960
  3. axis:    no     0.000000    0.000000   26.651768   132     0.2019

  Lengths:   8.146719   8.146719  26.651768
  Angles:   90.000000  90.000000  60.000000

Effective grid spacing dv^(1/3) = 0.2077

     iter     time        total  log10-change:  magmom
                         energy   eigst   dens
iter:   1 03:42:17  -103.149360        c          +0.0000
iter:   2 03:50:26  -118.098041        c -2.13    +0.0000
iter:   3 03:58:51  -106.133634        c -1.68    +0.0000
[...]
iter:   2 19:27:59  -119.718017        c -2.16    -0.0000
iter:   3 19:37:08  -104.757281        c -1.69    -0.0000
iter:   4 19:45:10  -104.077245        c -2.28    -0.0000
iter:   5 19:53:56  -104.039436        c -2.95    +0.0000
iter:   6 20:02:19  -104.033626c       c -3.34    -0.0000
iter:   7 20:10:58  -104.032316c       c -3.56    -0.0000
iter:   8 20:21:18  -104.029320c       c -3.37    +0.0000
iter:   9 20:30:59  -104.029516c       c -3.74    +0.0000
iter:  10 20:41:18  -104.030139c       c -4.00c   +0.0000

Converged after 10 iterations.

Dipole moment: (-12.553488, -7.247677, 0.012963) |e|*Ang

Total magnetic moment: (0.000000, 0.000000, 0.000000)
Local magnetic moments:
   0 Pd ( 0.000000,  0.000000, -0.000000)
   1 Pd ( 0.000000,  0.000000, -0.000000)
   2 Pd ( 0.000000,  0.000000,  0.000000)
   3 Pd ( 0.000000,  0.000000, -0.000000)
   4 Pd ( 0.000000,  0.000000,  0.000000)
   5 Pd ( 0.000000,  0.000000,  0.000000)
   6 Pd ( 0.000000,  0.000000, -0.000000)
   7 Pd ( 0.000000,  0.000000,  0.000000)
   8 Pd ( 0.000000,  0.000000, -0.000000)
   9 Pd ( 0.000000,  0.000000,  0.000000)
  10 Pd ( 0.000000,  0.000000,  0.000000)
  11 Pd ( 0.000000,  0.000000, -0.000000)
  12 Pd ( 0.000000,  0.000000,  0.000000)
  13 Pd ( 0.000000,  0.000000,  0.000000)
  14 Pd ( 0.000000,  0.000000,  0.000000)
  15 Pd ( 0.000000,  0.000000,  0.000000)
  16 Pd ( 0.000000,  0.000000,  0.000000)
  17 Pd ( 0.000000,  0.000000,  0.000000)
  18 Pd ( 0.000000,  0.000000,  0.000000)
  19 Pd ( 0.000000,  0.000000,  0.000000)
  20 Pd ( 0.000000,  0.000000,  0.000000)
  21 Pd ( 0.000000,  0.000000,  0.000000)
  22 Pd ( 0.000000,  0.000000,  0.000000)
  23 Pd ( 0.000000,  0.000000,  0.000000)
  24 Pd ( 0.000000,  0.000000,  0.000000)
  25 Pd ( 0.000000,  0.000000,  0.000000)
  26 Pd ( 0.000000,  0.000000,  0.000000)
  27 Pd ( 0.000000,  0.000000,  0.000000)
  28 Pd ( 0.000000,  0.000000,  0.000000)
  29 Pd ( 0.000000,  0.000000,  0.000000)
  30 Pd ( 0.000000,  0.000000,  0.000000)
  31 Pd ( 0.000000,  0.000000,  0.000000)
  32 Pd ( 0.000000,  0.000000,  0.000000)
  33 Pd ( 0.000000,  0.000000,  0.000000)
  34 Pd ( 0.000000,  0.000000,  0.000000)
  35 Pd ( 0.000000,  0.000000, -0.000000)
  36 O  ( 0.000000,  0.000000,  0.000000)
  37 H  ( 0.000000,  0.000000,  0.000000)

Energy contributions relative to reference atoms: (reference = -4942243.008314)

Kinetic:       -1953.963636
Potential:     +1714.098417
External:        +0.000000
XC:            +134.020171
Entropy (-ST):   -2.284113
Local:           +2.956965
SIC:             +0.000000
--------------------------
Free energy:   -105.172196
Extrapolated:  -104.030139

Spin contamination: 0.000000 electrons
Showing only first 2 kpts
                      Up                     Down
 Kpt  Band  Eigenvalues  Occupancy  Eigenvalues  Occupancy
  0   289     -5.79752    0.94712     -5.79752    0.94712
  0   290     -5.79032    0.94340     -5.79032    0.94340
  0   291     -5.76629    0.92912     -5.76629    0.92912
  0   292     -5.75083    0.91823     -5.75083    0.91823

  1   289     -5.54508    0.58928     -5.54508    0.58928
  1   290     -5.48809    0.44798     -5.48809    0.44798
  1   291     -5.40674    0.26457     -5.40674    0.26457
  1   292     -5.39653    0.24519     -5.39653    0.24519


Fermi level: -5.50898

No gap
No difference between direct/indirect transitions

Forces in eV/Ang:
  0 Pd   -0.02049   -0.01183   -0.45182
  1 Pd    0.00710    0.00104   -0.45740
  2 Pd    0.02094   -0.04639   -0.48479
  3 Pd    0.00445    0.00563   -0.45740
  4 Pd    0.00138    0.00080   -0.45279
  5 Pd   -0.00641    0.01907   -0.44557
  6 Pd   -0.02971    0.04134   -0.48479
  7 Pd    0.01331   -0.01508   -0.44557
  8 Pd    0.02416    0.01395   -0.48037
  9 Pd   -0.03823   -0.02208    0.55047
 10 Pd   -0.04756    0.00216    0.48039
 11 Pd    0.03619    0.00062    0.56303
 12 Pd   -0.02190   -0.04227    0.48039
 13 Pd    0.03613    0.02086    0.56136
 14 Pd   -0.05702   -0.03609    0.61296
 15 Pd    0.01864    0.03103    0.56303
 16 Pd   -0.05977   -0.03133    0.61296
 17 Pd   -0.01031   -0.00595    0.53487
 18 Pd   -0.01150    0.02493    0.02884
 19 Pd    0.03989    0.02303   -0.02718
 20 Pd   -0.02851    0.05850   -0.02701
 21 Pd   -0.02676   -0.01187   -0.08727
 22 Pd    0.03638   -0.05395   -0.02703
 23 Pd    0.00355    0.00202   -0.28122
 24 Pd   -0.00659   -0.00381    0.00615
 25 Pd    0.01584   -0.02241    0.02884
 26 Pd   -0.02366   -0.01724   -0.08727
 27 Pd   -0.03093   -0.01785   -0.06247
 28 Pd    0.05811   -0.00776   -0.03752
 29 Pd    0.02214    0.00741   -0.01325
 30 Pd    0.02233    0.05420   -0.03753
 31 Pd   -0.06805   -0.03928   -0.02443
 32 Pd    0.13255   -0.17661    0.07831
 33 Pd    0.01750    0.01546   -0.01323
 34 Pd   -0.08667    0.20309    0.07832
 35 Pd    0.04149    0.02395    0.07867
 36 O    -0.19823   -0.11440   -0.32305
 37 H     0.18102    0.10451    0.00000

System changes: positions 

Initializing position-dependent things.

Density initialized from wave functions
                                           
                                           
                                           
                                           
                                           
                          H                
                       O                   
                Pd     Pd     Pd           
            Pd                             
                 PPd    PPd    Pd          
       Pd    PPd   PPd    Pd               
                                           
        Pd     Pd   PPd    Pd    Pd        
                                           
                Pd    Pd     Pd            
           Pd    Pd     Pd                 
                Pd     Pd     Pd           
            Pd    Pd     Pd                
       Pd     Pd    Pd                     
                                           
                                           
                                           
                                           

Atomic positions and initial magnetic moments

Positions:
   0 Pd     0.000000    0.000000   10.000000    ( 0.0000,  0.0000,  0.0000)
   1 Pd     2.715573    0.000000   10.000000    ( 0.0000,  0.0000,  0.0000)
   2 Pd     5.431146    0.000000   10.000000    ( 0.0000,  0.0000,  0.0000)
   3 Pd     1.357786    2.351755   10.000000    ( 0.0000,  0.0000,  0.0000)
   4 Pd     4.073359    2.351755   10.000000    ( 0.0000,  0.0000,  0.0000)
   5 Pd     6.788932    2.351755   10.000000    ( 0.0000,  0.0000,  0.0000)
   6 Pd     2.715573    4.703510   10.000000    ( 0.0000,  0.0000,  0.0000)
   7 Pd     5.431146    4.703510   10.000000    ( 0.0000,  0.0000,  0.0000)
   8 Pd     8.146719    4.703510   10.000000    ( 0.0000,  0.0000,  0.0000)
   9 Pd     1.357786    0.783918   12.217256    ( 0.0000,  0.0000,  0.0000)
  10 Pd     4.073359    0.783918   12.217256    ( 0.0000,  0.0000,  0.0000)
  11 Pd     6.788932    0.783918   12.217256    ( 0.0000,  0.0000,  0.0000)
  12 Pd     2.715573    3.135673   12.217256    ( 0.0000,  0.0000,  0.0000)
  13 Pd     5.431146    3.135673   12.217256    ( 0.0000,  0.0000,  0.0000)
  14 Pd     8.146719    3.135673   12.217256    ( 0.0000,  0.0000,  0.0000)
  15 Pd     4.073359    5.487429   12.217256    ( 0.0000,  0.0000,  0.0000)
  16 Pd     6.788932    5.487429   12.217256    ( 0.0000,  0.0000,  0.0000)
  17 Pd     9.504505    5.487429   12.217256    ( 0.0000,  0.0000,  0.0000)
  18 Pd    -0.016508    1.559042   14.517589    ( 0.0000,  0.0000,  0.0000)
  19 Pd     2.700013    1.558851   14.487798    ( 0.0000,  0.0000,  0.0000)
  20 Pd     5.418843    1.559987   14.478796    ( 0.0000,  0.0000,  0.0000)
  21 Pd     1.352162    3.911977   14.481417    ( 0.0000,  0.0000,  0.0000)
  22 Pd     4.060413    3.912859   14.478794    ( 0.0000,  0.0000,  0.0000)
  23 Pd     6.776639    3.912492   14.470820    ( 0.0000,  0.0000,  0.0000)
  24 Pd     2.706656    6.266197   14.481363    ( 0.0000,  0.0000,  0.0000)
  25 Pd     5.415277    6.261445   14.517587    ( 0.0000,  0.0000,  0.0000)
  26 Pd     8.137313    6.270280   14.481417    ( 0.0000,  0.0000,  0.0000)
  27 Pd    -0.011243   -0.006492   16.806649    ( 0.0000,  0.0000,  0.0000)
  28 Pd     2.707943    0.003385   16.790316    ( 0.0000,  0.0000,  0.0000)
  29 Pd     5.419390   -0.016013   16.775426    ( 0.0000,  0.0000,  0.0000)
  30 Pd     1.356904    2.343453   16.790315    ( 0.0000,  0.0000,  0.0000)
  31 Pd     4.044306    2.334980   16.765962    ( 0.0000,  0.0000,  0.0000)
  32 Pd     6.800420    2.334756   16.790670    ( 0.0000,  0.0000,  0.0000)
  33 Pd     2.695830    4.701333   16.775425    ( 0.0000,  0.0000,  0.0000)
  34 Pd     5.422171    4.721959   16.790663    ( 0.0000,  0.0000,  0.0000)
  35 Pd     8.143601    4.701708   16.752837    ( 0.0000,  0.0000,  0.0000)
  36 O      5.874967    3.391928   18.415730    ( 0.0000,  0.0000,  0.0000)
  37 H      6.689062    3.861936   18.830683    ( 0.0000,  0.0000,  0.0000)

Unit cell:
           periodic     x           y           z      points  spacing
  1. axis:    yes    8.146719    0.000000    0.000000    36     0.1960
  2. axis:    yes    4.073359    7.055265    0.000000    36     0.1960
  3. axis:    no     0.000000    0.000000   26.651768   132     0.2019

  Lengths:   8.146719   8.146719  26.651768
  Angles:   90.000000  90.000000  60.000000

Effective grid spacing dv^(1/3) = 0.2077

     iter     time        total  log10-change:  magmom
                         energy   eigst   dens
iter:   1 21:15:22  -104.629436        c          +0.0000
iter:   2 21:26:29  -115.534331        c -2.24    -0.0000
iter:   3 21:34:59  -104.455848        c -1.74    -0.0000
iter:   4 21:42:49  -104.084494        c -2.42    +0.0000
iter:   5 21:51:16  -104.054565        c -3.00    -0.0000
iter:   6 22:01:06  -104.047556c       c -3.36    +0.0000
iter:   7 22:09:11  -104.046543c       c -3.70    +0.0000
iter:   8 22:17:20  -104.044645c       c -3.81    +0.0000
iter:   9 22:25:17  -104.044740c       c -3.92    -0.0000
iter:  10 22:34:35  -104.044875c       c -4.11c   -0.0000

Converged after 10 iterations.

Dipole moment: (-12.105307, -6.988925, 0.003719) |e|*Ang

Total magnetic moment: (0.000000, 0.000000, -0.000000)
Local magnetic moments:
   0 Pd ( 0.000000,  0.000000, -0.000000)
   1 Pd ( 0.000000,  0.000000, -0.000000)
   2 Pd ( 0.000000,  0.000000, -0.000000)
   3 Pd ( 0.000000,  0.000000, -0.000000)
   4 Pd ( 0.000000,  0.000000, -0.000000)
   5 Pd ( 0.000000,  0.000000,  0.000000)
   6 Pd ( 0.000000,  0.000000, -0.000000)
   7 Pd ( 0.000000,  0.000000, -0.000000)
   8 Pd ( 0.000000,  0.000000, -0.000000)
   9 Pd ( 0.000000,  0.000000,  0.000000)
  10 Pd ( 0.000000,  0.000000, -0.000000)
  11 Pd ( 0.000000,  0.000000, -0.000000)
  12 Pd ( 0.000000,  0.000000,  0.000000)
  13 Pd ( 0.000000,  0.000000,  0.000000)
  14 Pd ( 0.000000,  0.000000,  0.000000)
  15 Pd ( 0.000000,  0.000000,  0.000000)
  16 Pd ( 0.000000,  0.000000,  0.000000)
  17 Pd ( 0.000000,  0.000000,  0.000000)
  18 Pd ( 0.000000,  0.000000, -0.000000)
  19 Pd ( 0.000000,  0.000000,  0.000000)
  20 Pd ( 0.000000,  0.000000, -0.000000)
  21 Pd ( 0.000000,  0.000000, -0.000000)
  22 Pd ( 0.000000,  0.000000, -0.000000)
  23 Pd ( 0.000000,  0.000000, -0.000000)
  24 Pd ( 0.000000,  0.000000, -0.000000)
  25 Pd ( 0.000000,  0.000000,  0.000000)
  26 Pd ( 0.000000,  0.000000,  0.000000)
  27 Pd ( 0.000000,  0.000000, -0.000000)
  28 Pd ( 0.000000,  0.000000,  0.000000)
  29 Pd ( 0.000000,  0.000000,  0.000000)
  30 Pd ( 0.000000,  0.000000,  0.000000)
  31 Pd ( 0.000000,  0.000000, -0.000000)
  32 Pd ( 0.000000,  0.000000, -0.000000)
  33 Pd ( 0.000000,  0.000000,  0.000000)
  34 Pd ( 0.000000,  0.000000, -0.000000)
  35 Pd ( 0.000000,  0.000000, -0.000000)
  36 O  ( 0.000000,  0.000000,  0.000000)
  37 H  ( 0.000000,  0.000000, -0.000000)

Energy contributions relative to reference atoms: (reference = -4942243.008314)

Kinetic:       -1953.309574
Potential:     +1713.544166
External:        +0.000000
XC:            +133.928055
Entropy (-ST):   -2.280762
Local:           +2.932859
SIC:             +0.000000
--------------------------
Free energy:   -105.185257
Extrapolated:  -104.044875

Spin contamination: 0.000000 electrons
Showing only first 2 kpts
                      Up                     Down
 Kpt  Band  Eigenvalues  Occupancy  Eigenvalues  Occupancy
  0   289     -5.80626    0.94660     -5.80626    0.94660
  0   290     -5.80120    0.94398     -5.80120    0.94398
  0   291     -5.77727    0.92990     -5.77727    0.92990
  0   292     -5.76194    0.91923     -5.76194    0.91923

  1   289     -5.55341    0.58580     -5.55341    0.58580
  1   290     -5.49878    0.45025     -5.49878    0.45025
  1   291     -5.41735    0.26621     -5.41735    0.26621
  1   292     -5.40654    0.24561     -5.40654    0.24561


Fermi level: -5.51875

No gap
No difference between direct/indirect transitions

Forces in eV/Ang:
  0 Pd   -0.01482   -0.00856   -0.45274
  1 Pd    0.00619   -0.00040   -0.45376
  2 Pd    0.01589   -0.04572   -0.48487
  3 Pd    0.00274    0.00556   -0.45376
  4 Pd    0.00515    0.00297   -0.44475
  5 Pd   -0.00860    0.01728   -0.44422
  6 Pd   -0.03165    0.03662   -0.48487
  7 Pd    0.01066   -0.01609   -0.44422
  8 Pd    0.02832    0.01635   -0.48415
  9 Pd   -0.03064   -0.01769    0.54775
 10 Pd   -0.04371    0.00130    0.47878
 11 Pd    0.03042    0.00484    0.57541
 12 Pd   -0.02073   -0.03851    0.47877
 13 Pd   -0.00672   -0.00389    0.49787
 14 Pd   -0.01516   -0.06090    0.54618
 15 Pd    0.01940    0.02393    0.57540
 16 Pd   -0.06032    0.01732    0.54618
 17 Pd   -0.00661   -0.00382    0.52746
 18 Pd   -0.01419    0.00941   -0.00940
 19 Pd    0.00693    0.00400   -0.02188
 20 Pd    0.00725    0.01411   -0.02705
 21 Pd   -0.00806   -0.01429   -0.05095
 22 Pd    0.01584   -0.00078   -0.02704
 23 Pd   -0.00899   -0.00519    0.01617
 24 Pd   -0.00210   -0.00121   -0.00523
 25 Pd    0.00106   -0.01699   -0.00938
 26 Pd   -0.01641    0.00017   -0.05095
 27 Pd    0.00215    0.00124   -0.03008
 28 Pd    0.00301   -0.00786   -0.02262
 29 Pd    0.01979    0.01814   -0.02858
 30 Pd   -0.00531    0.00653   -0.02262
 31 Pd   -0.01589   -0.00918   -0.08175
 32 Pd    0.07595   -0.04382   -0.00047
 33 Pd    0.02560    0.00807   -0.02858
 34 Pd    0.00003    0.08768   -0.00046
 35 Pd    0.04179    0.02413   -0.00706
 36 O    -0.00851   -0.00495    0.02237
 37 H     0.05137    0.02967    0.01130

Writing to Pd_OH_restart.gpw (mode='all')

Timing:                                       incl.     excl.
--------------------------------------------------------------------
Basic WFS set positions:                      6.400     0.254   0.0% |
 Redistribute:                                6.146     6.146   0.0% |
Basis functions set positions:               45.174    45.174   0.0% |
Forces:                                   28656.682    82.250   0.0% |
 LCAO forces:                             28574.432     3.664   0.0% |
  Atomic Hamiltonian force:                  34.442    34.442   0.0% |
  Initial:                                    6.813     0.000   0.0% |
   Get density matrix:                        6.812     6.812   0.0% |
  Paw correction:                            49.205    49.205   0.0% |
  Potential:                              27298.285 27298.285  12.8% |----|
  TCI derivative:                           980.072   980.072   0.5% |
  Wait for sum:                             201.952   201.952   0.1% |
LCAO WFS Initialize:                       5187.514     0.983   0.0% |
 Density initialized from wave functions:  4862.718   306.035   0.1% |
  Calculate density matrix:                   3.494     3.494   0.0% |
  Construct density:                       4553.181  4553.181   2.1% ||
  Symmetrize density:                         0.009     0.009   0.0% |
 Hamiltonian:                               323.813     5.904   0.0% |
  Atomic:                                    97.193    37.057   0.0% |
   XC Correction:                            60.136    60.136   0.0% |
  Calculate atomic Hamiltonians:              5.244     5.244   0.0% |
  Communicate:                                0.044     0.044   0.0% |
  Hartree integrate/restrict:                 9.629     9.629   0.0% |
  Initialize Hamiltonian:                     0.000     0.000   0.0% |
  Poisson:                                   45.867    17.443   0.0% |
   Communicate from 1D:                       3.389     3.389   0.0% |
   Communicate from 2D:                       1.530     1.530   0.0% |
   Communicate to 1D:                         4.645     4.645   0.0% |
   Communicate to 2D:                         2.611     2.611   0.0% |
   FFT 1D:                                    5.715     5.715   0.0% |
   FFT 2D:                                   10.533    10.533   0.0% |
  XC 3D grid:                               154.186   154.186   0.1% |
  vbar:                                       5.745     5.745   0.0% |
P tci:                                      157.802   157.802   0.1% |
Redistribute:                                 0.019     0.019   0.0% |
SCF-cycle:                                177566.900  4670.625   2.2% ||
 Density:                                 46331.149     0.160   0.0% |
  Atomic density matrices:                 1323.202  1323.202   0.6% |
  Mix:                                      516.091   516.091   0.2% |
  Multipole moments:                          1.551     1.551   0.0% |
  Normalize:                                  0.395     0.395   0.0% |
  Pseudo density:                         44489.749   256.115   0.1% |
   Calculate density matrix:                 25.444    25.444   0.0% |
   Construct density:                     44208.084 44208.084  20.7% |-------|
   Symmetrize density:                        0.107     0.107   0.0% |
 Hamiltonian:                              1996.786     7.346   0.0% |
  Atomic:                                   721.344   130.135   0.1% |
   XC Correction:                           591.209   591.209   0.3% |
  Calculate atomic Hamiltonians:             44.653    44.653   0.0% |
  Communicate:                                0.508     0.508   0.0% |
  Hartree integrate/restrict:                17.511    17.511   0.0% |
  Poisson:                                  205.888    10.517   0.0% |
   Communicate from 1D:                      17.516    17.516   0.0% |
   Communicate from 2D:                      18.169    18.169   0.0% |
   Communicate to 1D:                        15.732    15.732   0.0% |
   Communicate to 2D:                        19.265    19.265   0.0% |
   FFT 1D:                                   57.328    57.328   0.0% |
   FFT 2D:                                   67.362    67.362   0.0% |
  XC 3D grid:                               990.098   990.098   0.5% |
  vbar:                                       9.436     9.436   0.0% |
 LCAO eigensolver:                        124568.341     3.327   0.0% |
  Calculate projections:                    102.712   102.712   0.0% |
  DenseAtomicCorrection:                    136.532   136.532   0.1% |
  Distribute overlap matrix:                  3.122     3.122   0.0% |
  Orbital Layouts:                        33104.251 33104.251  15.5% |-----|
  Potential matrix:                       91062.114 91062.114  42.6% |----------------|
  Sum over cells:                           156.284   156.284   0.1% |
ST tci:                                     138.222   138.222   0.1% |
Set symmetry:                                 0.001     0.001   0.0% |
TCI: Evaluate splines:                        0.400     0.400   0.0% |
mktci:                                       62.107    62.107   0.0% |
Other:                                     2071.493  2071.493   1.0% |
--------------------------------------------------------------------
Total:                                              213892.714 100.0%

Memory usage: 1.82 GiB
Date: Thu Oct  9 22:51:21 2025
