
  ___ ___ ___ _ _ _  
 |   |   |_  | | | | 
 | | | | | . | | | | 
 |__ |  _|___|_____|  25.7.0
 |___|_|             

User:   qchem@IFEOLUWA
Date:   Tue Sep 30 08:31:44 2025
Arch:   x86_64
Pid:    14673
CWD:    /home/qchem/projects/gpaw_calculations
Python: 3.12.3
gpaw:   /home/qchem/gpaw-venv/lib/python3.12/site-packages/gpaw
_gpaw:  /home/qchem/gpaw-venv/lib/python3.12/site-packages/
        _gpaw.cpython-312-x86_64-linux-gnu.so
ase:    /home/qchem/gpaw-venv/lib/python3.12/site-packages/ase (version 3.26.0)
numpy:  /home/qchem/gpaw-venv/lib/python3.12/site-packages/numpy (version 2.3.3)
scipy:  /home/qchem/gpaw-venv/lib/python3.12/site-packages/scipy (version 1.16.2)
libxc:  5.2.3
units:  Angstrom and eV
cores: 1
OpenMP: False
OMP_NUM_THREADS: 1

Input parameters:
  basis: {Pd: sz(dzp)}
  kpts: {density: 2.5,
         gamma: True}
  mode: {interpolation: 3,
         name: lcao}
  occupations: {name: fermi-dirac,
                width: 0.1}
  symmetry: {point_group: False}
  xc: PBE

System changes: positions, numbers, cell, pbc, initial_charges, initial_magmoms 

Initialize ...

species:
  Pd:
    name: Palladium
    id: c3f348c122b85aed3f99c4295cac773c
    Z: 46.0
    valence: 16
    core: 30
    charge: 0.0
    file: /home/qchem/gpaw-venv/lib/python3.12/site-packages/gpaw_data/setups/Pd.PBE.gz
    compensation charges: {type: gauss,
                           rc: 0.38,
                           lmax: 2}
    cutoffs: {filter: 2.38,
              core: 2.28}
    projectors:
      #              energy  rcut
      - 5s(0.00)    -3.315   1.228
      - 4p(6.00)   -51.209   1.360
      - 5p(0.00)    -0.314   1.360
      - 4d(10.00)    -4.047   1.228
      -  s          23.896   1.228
      -  d          23.165   1.228
  
    # LCAO basis set for Pd:
    #   Name: sz(dzp)
    #   File: /home/qchem/gpaw-venv/lib/python3.12/site-packages/gpaw_data/setups/Pd.dzp.basis.gz
    #   Number of radial functions: 4
    #   Number of spherical harmonics: 12
    #     l=0, rc=10.0312 Bohr: 5s-sz confined orbital
    #     l=1, rc=3.5312 Bohr: 4p-sz confined orbital
    #     l=1, rc=16.0000 Bohr: 5p-sz confined orbital
    #     l=2, rc=6.2031 Bohr: 4d-sz confined orbital
    #   Number of RI-basis functions 0

Reference energy: -4940189.665851  # eV

Spin-paired calculation

Convergence criteria:
 Maximum [total energy] change in last 3 cyles: 0.0005 eV / valence electron
 Maximum integral of absolute [dens]ity change: 0.0001 electrons / valence electron
 Maximum integral of absolute [eigenst]ate change: 4e-08 eV^2 / valence electron
 Maximum number of scf [iter]ations: 333
 (Square brackets indicate name in SCF output, whereas a 'c' in
 the SCF output indicates the quantity has converged.)

Symmetries present (total): 1

  ( 1  0  0)
  ( 0  1  0)
  ( 0  0  1)

9 k-points: 3 x 3 x 1 Monkhorst-Pack grid
5 k-points in the irreducible part of the Brillouin zone
       k-points in crystal coordinates                weights
   0:     0.00000000    0.00000000    0.00000000          1/9
   1:     0.00000000    0.33333333    0.00000000          2/9
   2:     0.33333333   -0.33333333    0.00000000          2/9
   3:     0.33333333    0.00000000    0.00000000          2/9
   4:     0.33333333    0.33333333    0.00000000          2/9

Wave functions: LCAO
  Diagonalizer: Serial LAPACK
  Atomic Correction: dense with blas
  Data-type: complex
 

Occupation numbers: Fermi-Dirac:
  width: 0.1000  # eV
 

Eigensolver
   LCAO using direct dense diagonalizer 

Densities:
  Coarse grid: 36*36*132 grid
  Fine grid: 72*72*264 grid
  Total Charge: 0.000000 

Density mixing:
  Method: separate
  Backend: pulay
  Linear mixing parameter: 0.05
  old densities: 5
  Damping of long wavelength oscillations: 50 

Hamiltonian:
  XC and Coulomb potentials evaluated on a 72*72*264 grid
  Using the PBE Exchange-Correlation functional
  Interpolation: tri-quintic (5. degree polynomial)
  Poisson solver: FastPoissonSolver using
    Stencil: 8*3+1=25 point O(h^6) finite-difference Laplacian
    FFT axes: [np.int64(0), np.int64(1)]
    FST axes: [np.int64(2)]
 

XC parameters: PBE with 2 nearest neighbor stencil

Memory estimate:
  Process memory now: 319.76 MiB
  Calculator: 590.13 MiB
    Density: 234.42 MiB
      Arrays: 33.80 MiB
      Localized functions: 187.67 MiB
      Mixer: 12.95 MiB
    Hamiltonian: 35.96 MiB
      Arrays: 22.10 MiB
      XC: 0.00 MiB
      Poisson: 0.00 MiB
      vbar: 13.86 MiB
    Wavefunctions: 319.75 MiB
      C [qnM]: 11.54 MiB
      S, T [2 x qmm]: 28.48 MiB
      P [aqMi]: 1.33 MiB
      BasisFunctions: 278.40 MiB
      Eigensolver: 0.00 MiB

Total number of cores used: 1

Number of atoms: 36
Number of atomic orbitals: 432
Number of bands in calculation: 350
Number of valence electrons: 576
Bands to converge: occupied

... initialized

Initializing position-dependent things.

Density initialized from atomic densities
                                           
                                           
                                           
                                           
                                           
                Pd     Pd     Pd           
            Pd   PPd    PPd    Pd          
       Pd     Pd    Pd                     
             Pd    Pd     Pd               
        Pd     Pd   PPd    Pd    Pd        
                                           
                Pd    Pd     Pd            
           Pd    Pd     Pd                 
                Pd     Pd     Pd           
            Pd    Pd     Pd                
       Pd     Pd    Pd                     
                                           
                                           
                                           
                                           

Atomic positions and initial magnetic moments

Positions:
   0 Pd     0.000000    0.000000   10.000000    ( 0.0000,  0.0000,  0.0000)
   1 Pd     2.715573    0.000000   10.000000    ( 0.0000,  0.0000,  0.0000)
   2 Pd     5.431146    0.000000   10.000000    ( 0.0000,  0.0000,  0.0000)
   3 Pd     1.357786    2.351755   10.000000    ( 0.0000,  0.0000,  0.0000)
   4 Pd     4.073359    2.351755   10.000000    ( 0.0000,  0.0000,  0.0000)
   5 Pd     6.788932    2.351755   10.000000    ( 0.0000,  0.0000,  0.0000)
   6 Pd     2.715573    4.703510   10.000000    ( 0.0000,  0.0000,  0.0000)
   7 Pd     5.431146    4.703510   10.000000    ( 0.0000,  0.0000,  0.0000)
   8 Pd     8.146719    4.703510   10.000000    ( 0.0000,  0.0000,  0.0000)
   9 Pd     1.357786    0.783918   12.217256    ( 0.0000,  0.0000,  0.0000)
  10 Pd     4.073359    0.783918   12.217256    ( 0.0000,  0.0000,  0.0000)
  11 Pd     6.788932    0.783918   12.217256    ( 0.0000,  0.0000,  0.0000)
  12 Pd     2.715573    3.135673   12.217256    ( 0.0000,  0.0000,  0.0000)
  13 Pd     5.431146    3.135673   12.217256    ( 0.0000,  0.0000,  0.0000)
  14 Pd     8.146719    3.135673   12.217256    ( 0.0000,  0.0000,  0.0000)
  15 Pd     4.073359    5.487429   12.217256    ( 0.0000,  0.0000,  0.0000)
  16 Pd     6.788932    5.487429   12.217256    ( 0.0000,  0.0000,  0.0000)
  17 Pd     9.504505    5.487429   12.217256    ( 0.0000,  0.0000,  0.0000)
  18 Pd     0.000000    1.567837   14.434512    ( 0.0000,  0.0000,  0.0000)
  19 Pd     2.715573    1.567837   14.434512    ( 0.0000,  0.0000,  0.0000)
  20 Pd     5.431146    1.567837   14.434512    ( 0.0000,  0.0000,  0.0000)
  21 Pd     1.357786    3.919592   14.434512    ( 0.0000,  0.0000,  0.0000)
  22 Pd     4.073359    3.919592   14.434512    ( 0.0000,  0.0000,  0.0000)
  23 Pd     6.788932    3.919592   14.434512    ( 0.0000,  0.0000,  0.0000)
  24 Pd     2.715573    6.271347   14.434512    ( 0.0000,  0.0000,  0.0000)
  25 Pd     5.431146    6.271347   14.434512    ( 0.0000,  0.0000,  0.0000)
  26 Pd     8.146719    6.271347   14.434512    ( 0.0000,  0.0000,  0.0000)
  27 Pd     0.000000    0.000000   16.651768    ( 0.0000,  0.0000,  0.0000)
  28 Pd     2.715573    0.000000   16.651768    ( 0.0000,  0.0000,  0.0000)
  29 Pd     5.431146    0.000000   16.651768    ( 0.0000,  0.0000,  0.0000)
  30 Pd     1.357786    2.351755   16.651768    ( 0.0000,  0.0000,  0.0000)
  31 Pd     4.073359    2.351755   16.651768    ( 0.0000,  0.0000,  0.0000)
  32 Pd     6.788932    2.351755   16.651768    ( 0.0000,  0.0000,  0.0000)
  33 Pd     2.715573    4.703510   16.651768    ( 0.0000,  0.0000,  0.0000)
  34 Pd     5.431146    4.703510   16.651768    ( 0.0000,  0.0000,  0.0000)
  35 Pd     8.146719    4.703510   16.651768    ( 0.0000,  0.0000,  0.0000)

Unit cell:
           periodic     x           y           z      points  spacing
  1. axis:    yes    8.146719    0.000000    0.000000    36     0.1960
  2. axis:    yes    4.073359    7.055265    0.000000    36     0.1960
  3. axis:    no     0.000000    0.000000   26.651768   132     0.2019

  Lengths:   8.146719   8.146719  26.651768
  Angles:   90.000000  90.000000  60.000000

Effective grid spacing dv^(1/3) = 0.2077

     iter     time        total  log10-change:
                         energy   eigst   dens
iter:   1 08:37:04  -165.495189        c
iter:   2 08:49:12  -147.362712        c -1.12
iter:   3 08:57:26  -133.137589        c -1.20
iter:   4 09:05:27  -101.899172        c -1.26
iter:   5 09:13:13  -101.025229        c -1.65
iter:   6 09:18:18   -95.995750        c -1.79
iter:   7 09:24:09   -95.703119        c -2.36
iter:   8 09:30:53   -95.587723        c -2.53
iter:   9 09:42:40   -95.489301c       c -2.70
iter:  10 09:50:20   -95.487112c       c -3.48
iter:  11 09:56:50   -95.487158c       c -3.52
iter:  12 10:01:38   -95.491432c       c -3.57
iter:  13 10:08:05   -95.489111c       c -3.40
iter:  14 10:15:40   -95.489109c       c -3.48
iter:  15 10:23:03   -95.489213c       c -4.00c

Converged after 15 iterations.

Dipole moment: (-13.090323, -7.557701, 0.000626) |e|*Ang

Energy contributions relative to reference atoms: (reference = -4940189.665851)

Kinetic:       -1895.442309
Potential:     +1664.591048
External:        +0.000000
XC:            +134.286640
Entropy (-ST):   -2.546451
Local:           +2.348634
SIC:             +0.000000
--------------------------
Free energy:    -96.762438
Extrapolated:   -95.489213

Showing only first 2 kpts
 Kpt  Band  Eigenvalues  Occupancy
  0   286     -5.96144    1.87036
  0   287     -5.96090    1.86971
  0   288     -5.96090    1.86971
  0   289     -5.80565    1.50474

  1   286     -5.76600    1.34290
  1   287     -5.76197    1.32504
  1   288     -5.65989    0.82857
  1   289     -5.62736    0.67627


Fermi level: -5.69452

No gap
No difference between direct/indirect transitions

Forces in eV/Ang:
  0 Pd    0.00015    0.00009   -0.49322
  1 Pd    0.00015    0.00009   -0.49322
  2 Pd    0.00015    0.00009   -0.49322
  3 Pd    0.00015    0.00009   -0.49322
  4 Pd    0.00015    0.00009   -0.49322
  5 Pd    0.00015    0.00009   -0.49322
  6 Pd    0.00015    0.00009   -0.49322
  7 Pd    0.00015    0.00009   -0.49322
  8 Pd    0.00015    0.00009   -0.49322
  9 Pd    0.00003    0.00002    0.17739
 10 Pd    0.00003    0.00002    0.17739
 11 Pd    0.00003    0.00002    0.17739
 12 Pd    0.00003    0.00002    0.17739
 13 Pd    0.00003    0.00002    0.17739
 14 Pd    0.00003    0.00002    0.17739
 15 Pd    0.00003    0.00002    0.17739
 16 Pd    0.00003    0.00002    0.17739
 17 Pd    0.00003    0.00002    0.17739
 18 Pd   -0.00003   -0.00002   -0.17992
 19 Pd   -0.00003   -0.00002   -0.17992
 20 Pd   -0.00003   -0.00002   -0.17992
 21 Pd   -0.00003   -0.00002   -0.17992
 22 Pd   -0.00003   -0.00002   -0.17992
 23 Pd   -0.00003   -0.00002   -0.17992
 24 Pd   -0.00003   -0.00002   -0.17992
 25 Pd   -0.00003   -0.00002   -0.17992
 26 Pd   -0.00003   -0.00002   -0.17992
 27 Pd   -0.00015   -0.00009    0.49160
 28 Pd   -0.00015   -0.00009    0.49160
 29 Pd   -0.00015   -0.00009    0.49160
 30 Pd   -0.00015   -0.00009    0.49160
 31 Pd   -0.00015   -0.00009    0.49160
 32 Pd   -0.00015   -0.00009    0.49160
 33 Pd   -0.00015   -0.00009    0.49160
 34 Pd   -0.00015   -0.00009    0.49160
 35 Pd   -0.00015   -0.00009    0.49160

System changes: positions 

Initializing position-dependent things.

Density initialized from wave functions
                                           
                                           
                                           
                                           
                                           
                Pd     Pd     Pd           
            Pd   PPd    PPd    Pd          
       Pd     Pd    Pd                     
             Pd    Pd     Pd               
        Pd     Pd    Pd                    
                    Pd     Pd    Pd        
                Pd    Pd     Pd            
           Pd    Pd     Pd                 
                Pd     Pd     Pd           
            Pd    Pd     Pd                
       Pd     Pd    Pd                     
                                           
                                           
                                           
                                           

Atomic positions and initial magnetic moments

Positions:
   0 Pd     0.000000    0.000000   10.000000    ( 0.0000,  0.0000,  0.0000)
   1 Pd     2.715573    0.000000   10.000000    ( 0.0000,  0.0000,  0.0000)
   2 Pd     5.431146    0.000000   10.000000    ( 0.0000,  0.0000,  0.0000)
   3 Pd     1.357786    2.351755   10.000000    ( 0.0000,  0.0000,  0.0000)
   4 Pd     4.073359    2.351755   10.000000    ( 0.0000,  0.0000,  0.0000)
   5 Pd     6.788932    2.351755   10.000000    ( 0.0000,  0.0000,  0.0000)
   6 Pd     2.715573    4.703510   10.000000    ( 0.0000,  0.0000,  0.0000)
   7 Pd     5.431146    4.703510   10.000000    ( 0.0000,  0.0000,  0.0000)
   8 Pd     8.146719    4.703510   10.000000    ( 0.0000,  0.0000,  0.0000)
   9 Pd     1.357786    0.783918   12.217256    ( 0.0000,  0.0000,  0.0000)
  10 Pd     4.073359    0.783918   12.217256    ( 0.0000,  0.0000,  0.0000)
  11 Pd     6.788932    0.783918   12.217256    ( 0.0000,  0.0000,  0.0000)
  12 Pd     2.715573    3.135673   12.217256    ( 0.0000,  0.0000,  0.0000)
  13 Pd     5.431146    3.135673   12.217256    ( 0.0000,  0.0000,  0.0000)
  14 Pd     8.146719    3.135673   12.217256    ( 0.0000,  0.0000,  0.0000)
  15 Pd     4.073359    5.487429   12.217256    ( 0.0000,  0.0000,  0.0000)
  16 Pd     6.788932    5.487429   12.217256    ( 0.0000,  0.0000,  0.0000)
  17 Pd     9.504505    5.487429   12.217256    ( 0.0000,  0.0000,  0.0000)
  18 Pd    -0.000003    1.567835   14.416520    ( 0.0000,  0.0000,  0.0000)
  19 Pd     2.715570    1.567835   14.416520    ( 0.0000,  0.0000,  0.0000)
  20 Pd     5.431143    1.567835   14.416520    ( 0.0000,  0.0000,  0.0000)
  21 Pd     1.357783    3.919590   14.416520    ( 0.0000,  0.0000,  0.0000)
  22 Pd     4.073356    3.919590   14.416520    ( 0.0000,  0.0000,  0.0000)
  23 Pd     6.788929    3.919590   14.416520    ( 0.0000,  0.0000,  0.0000)
  24 Pd     2.715570    6.271345   14.416520    ( 0.0000,  0.0000,  0.0000)
  25 Pd     5.431143    6.271345   14.416520    ( 0.0000,  0.0000,  0.0000)
  26 Pd     8.146716    6.271345   14.416520    ( 0.0000,  0.0000,  0.0000)
  27 Pd    -0.000015   -0.000009   16.700928    ( 0.0000,  0.0000,  0.0000)
  28 Pd     2.715558   -0.000009   16.700928    ( 0.0000,  0.0000,  0.0000)
  29 Pd     5.431131   -0.000009   16.700928    ( 0.0000,  0.0000,  0.0000)
  30 Pd     1.357772    2.351747   16.700928    ( 0.0000,  0.0000,  0.0000)
  31 Pd     4.073345    2.351747   16.700928    ( 0.0000,  0.0000,  0.0000)
  32 Pd     6.788918    2.351747   16.700928    ( 0.0000,  0.0000,  0.0000)
  33 Pd     2.715558    4.703502   16.700928    ( 0.0000,  0.0000,  0.0000)
  34 Pd     5.431131    4.703502   16.700928    ( 0.0000,  0.0000,  0.0000)
  35 Pd     8.146704    4.703502   16.700928    ( 0.0000,  0.0000,  0.0000)

Unit cell:
           periodic     x           y           z      points  spacing
  1. axis:    yes    8.146719    0.000000    0.000000    36     0.1960
  2. axis:    yes    4.073359    7.055265    0.000000    36     0.1960
  3. axis:    no     0.000000    0.000000   26.651768   132     0.2019

  Lengths:   8.146719   8.146719  26.651768
  Angles:   90.000000  90.000000  60.000000

Effective grid spacing dv^(1/3) = 0.2077

     iter     time        total  log10-change:
                         energy   eigst   dens
iter:   1 11:02:38   -96.832739        c
iter:   2 11:10:52  -112.937940        c -2.12
iter:   3 11:19:22   -97.116854        c -1.70
iter:   4 11:30:48   -95.735280        c -2.17
iter:   5 11:41:07   -95.623648        c -2.69
iter:   6 11:49:07   -95.618295c       c -3.21
iter:   7 11:56:13   -95.621181c       c -3.35
iter:   8 12:04:00   -95.607574c       c -3.13
iter:   9 12:13:49   -95.607020c       c -3.86
iter:  10 12:24:51   -95.607035c       c -3.87
iter:  11 12:34:41   -95.606981c       c -4.01c

Converged after 11 iterations.

Dipole moment: (-13.078118, -7.550645, -0.015914) |e|*Ang

Energy contributions relative to reference atoms: (reference = -4940189.665851)

Kinetic:       -1909.481188
Potential:     +1676.389094
External:        +0.000000
XC:            +136.434462
Entropy (-ST):   -2.512046
Local:           +2.306674
SIC:             +0.000000
--------------------------
Free energy:    -96.863004
Extrapolated:   -95.606981

Showing only first 2 kpts
 Kpt  Band  Eigenvalues  Occupancy
  0   286     -5.94983    1.88567
  0   287     -5.93463    1.86814
  0   288     -5.93463    1.86814
  0   289     -5.78568    1.52319

  1   286     -5.74669    1.36772
  1   287     -5.73388    1.31106
  1   288     -5.62483    0.78012
  1   289     -5.60777    0.70063


Fermi level: -5.66954

No gap
No difference between direct/indirect transitions

Forces in eV/Ang:
  0 Pd    0.00015    0.00009   -0.48939
  1 Pd    0.00015    0.00009   -0.48939
  2 Pd    0.00015    0.00009   -0.48939
  3 Pd    0.00015    0.00009   -0.48939
  4 Pd    0.00015    0.00009   -0.48939
  5 Pd    0.00015    0.00009   -0.48939
  6 Pd    0.00015    0.00009   -0.48939
  7 Pd    0.00015    0.00009   -0.48939
  8 Pd    0.00015    0.00009   -0.48939
  9 Pd    0.00003    0.00002    0.04741
 10 Pd    0.00003    0.00002    0.04741
 11 Pd    0.00003    0.00002    0.04741
 12 Pd    0.00003    0.00002    0.04741
 13 Pd    0.00003    0.00002    0.04741
 14 Pd    0.00003    0.00002    0.04741
 15 Pd    0.00003    0.00002    0.04741
 16 Pd    0.00003    0.00002    0.04741
 17 Pd    0.00003    0.00002    0.04741
 18 Pd   -0.00008   -0.00005    0.39615
 19 Pd   -0.00008   -0.00005    0.39615
 20 Pd   -0.00008   -0.00005    0.39615
 21 Pd   -0.00008   -0.00005    0.39615
 22 Pd   -0.00008   -0.00005    0.39615
 23 Pd   -0.00008   -0.00005    0.39615
 24 Pd   -0.00008   -0.00005    0.39615
 25 Pd   -0.00008   -0.00005    0.39615
 26 Pd   -0.00008   -0.00005    0.39615
 27 Pd   -0.00010   -0.00006    0.06350
 28 Pd   -0.00010   -0.00006    0.06350
 29 Pd   -0.00010   -0.00006    0.06350
 30 Pd   -0.00010   -0.00006    0.06350
 31 Pd   -0.00010   -0.00006    0.06350
 32 Pd   -0.00010   -0.00006    0.06350
 33 Pd   -0.00010   -0.00006    0.06350
 34 Pd   -0.00010   -0.00006    0.06350
 35 Pd   -0.00010   -0.00006    0.06350

System changes: positions 

Initializing position-dependent things.

Density initialized from wave functions
                                           
                                           
                                           
                                           
                                           
                Pd     Pd     Pd           
            Pd   PPd    PPd    Pd          
       Pd     Pd    Pd                     
             Pd    Pd     Pd               
        Pd     Pd    Pd                    
                    Pd     Pd    Pd        
                Pd    Pd     Pd            
           Pd    Pd     Pd                 
                Pd     Pd     Pd           
            Pd    Pd     Pd                
       Pd     Pd    Pd                     
                                           
                                           
                                           
                                           

Atomic positions and initial magnetic moments

Positions:
   0 Pd     0.000000    0.000000   10.000000    ( 0.0000,  0.0000,  0.0000)
   1 Pd     2.715573    0.000000   10.000000    ( 0.0000,  0.0000,  0.0000)
   2 Pd     5.431146    0.000000   10.000000    ( 0.0000,  0.0000,  0.0000)
   3 Pd     1.357786    2.351755   10.000000    ( 0.0000,  0.0000,  0.0000)
   4 Pd     4.073359    2.351755   10.000000    ( 0.0000,  0.0000,  0.0000)
   5 Pd     6.788932    2.351755   10.000000    ( 0.0000,  0.0000,  0.0000)
   6 Pd     2.715573    4.703510   10.000000    ( 0.0000,  0.0000,  0.0000)
   7 Pd     5.431146    4.703510   10.000000    ( 0.0000,  0.0000,  0.0000)
   8 Pd     8.146719    4.703510   10.000000    ( 0.0000,  0.0000,  0.0000)
   9 Pd     1.357786    0.783918   12.217256    ( 0.0000,  0.0000,  0.0000)
  10 Pd     4.073359    0.783918   12.217256    ( 0.0000,  0.0000,  0.0000)
  11 Pd     6.788932    0.783918   12.217256    ( 0.0000,  0.0000,  0.0000)
  12 Pd     2.715573    3.135673   12.217256    ( 0.0000,  0.0000,  0.0000)
  13 Pd     5.431146    3.135673   12.217256    ( 0.0000,  0.0000,  0.0000)
  14 Pd     8.146719    3.135673   12.217256    ( 0.0000,  0.0000,  0.0000)
  15 Pd     4.073359    5.487429   12.217256    ( 0.0000,  0.0000,  0.0000)
  16 Pd     6.788932    5.487429   12.217256    ( 0.0000,  0.0000,  0.0000)
  17 Pd     9.504505    5.487429   12.217256    ( 0.0000,  0.0000,  0.0000)
  18 Pd    -0.000011    1.567830   14.443331    ( 0.0000,  0.0000,  0.0000)
  19 Pd     2.715562    1.567830   14.443331    ( 0.0000,  0.0000,  0.0000)
  20 Pd     5.431134    1.567830   14.443331    ( 0.0000,  0.0000,  0.0000)
  21 Pd     1.357775    3.919585   14.443331    ( 0.0000,  0.0000,  0.0000)
  22 Pd     4.073348    3.919585   14.443331    ( 0.0000,  0.0000,  0.0000)
  23 Pd     6.788921    3.919585   14.443331    ( 0.0000,  0.0000,  0.0000)
  24 Pd     2.715562    6.271340   14.443331    ( 0.0000,  0.0000,  0.0000)
  25 Pd     5.431134    6.271340   14.443331    ( 0.0000,  0.0000,  0.0000)
  26 Pd     8.146707    6.271340   14.443331    ( 0.0000,  0.0000,  0.0000)
  27 Pd    -0.000030   -0.000017   16.727649    ( 0.0000,  0.0000,  0.0000)
  28 Pd     2.715543   -0.000017   16.727649    ( 0.0000,  0.0000,  0.0000)
  29 Pd     5.431116   -0.000017   16.727649    ( 0.0000,  0.0000,  0.0000)
  30 Pd     1.357757    2.351738   16.727649    ( 0.0000,  0.0000,  0.0000)
  31 Pd     4.073330    2.351738   16.727649    ( 0.0000,  0.0000,  0.0000)
  32 Pd     6.788902    2.351738   16.727649    ( 0.0000,  0.0000,  0.0000)
  33 Pd     2.715543    4.703493   16.727649    ( 0.0000,  0.0000,  0.0000)
  34 Pd     5.431116    4.703493   16.727649    ( 0.0000,  0.0000,  0.0000)
  35 Pd     8.146689    4.703493   16.727649    ( 0.0000,  0.0000,  0.0000)

Unit cell:
           periodic     x           y           z      points  spacing
  1. axis:    yes    8.146719    0.000000    0.000000    36     0.1960
  2. axis:    yes    4.073359    7.055265    0.000000    36     0.1960
  3. axis:    no     0.000000    0.000000   26.651768   132     0.2019

  Lengths:   8.146719   8.146719  26.651768
  Angles:   90.000000  90.000000  60.000000

Effective grid spacing dv^(1/3) = 0.2077

     iter     time        total  log10-change:
                         energy   eigst   dens
iter:   1 13:01:53   -95.721960        c
iter:   2 13:06:29   -96.485204        c -2.90
iter:   3 13:10:04   -95.690129        c -2.20
iter:   4 13:13:37   -95.690162        c -3.67
iter:   5 13:16:47   -95.689968c       c -3.75
iter:   6 13:20:18   -95.688669c       c -3.82
iter:   7 13:23:50   -95.688209c       c -4.02c

Converged after 7 iterations.

Dipole moment: (-13.077520, -7.550289, -0.015132) |e|*Ang

Energy contributions relative to reference atoms: (reference = -4940189.665851)

Kinetic:       -1926.472389
Potential:     +1691.316826
External:        +0.000000
XC:            +138.410943
Entropy (-ST):   -2.517861
Local:           +2.315342
SIC:             +0.000000
--------------------------
Free energy:    -96.947139
Extrapolated:   -95.688209

Showing only first 2 kpts
 Kpt  Band  Eigenvalues  Occupancy
  0   286     -5.96198    1.88736
  0   287     -5.94697    1.87031
  0   288     -5.94697    1.87031
  0   289     -5.79968    1.53554

  1   286     -5.76358    1.39472
  1   287     -5.74867    1.32998
  1   288     -5.63181    0.76312
  1   289     -5.62002    0.70828


Fermi level: -5.68011

No gap
No difference between direct/indirect transitions

Forces in eV/Ang:
  0 Pd    0.00014    0.00008   -0.49562
  1 Pd    0.00014    0.00008   -0.49562
  2 Pd    0.00014    0.00008   -0.49562
  3 Pd    0.00014    0.00008   -0.49562
  4 Pd    0.00014    0.00008   -0.49562
  5 Pd    0.00014    0.00008   -0.49562
  6 Pd    0.00014    0.00008   -0.49562
  7 Pd    0.00014    0.00008   -0.49562
  8 Pd    0.00014    0.00008   -0.49562
  9 Pd    0.00000    0.00000    0.25832
 10 Pd    0.00000    0.00000    0.25832
 11 Pd    0.00000    0.00000    0.25832
 12 Pd    0.00000    0.00000    0.25832
 13 Pd    0.00000    0.00000    0.25832
 14 Pd    0.00000    0.00000    0.25832
 15 Pd    0.00000    0.00000    0.25832
 16 Pd    0.00000    0.00000    0.25832
 17 Pd    0.00000    0.00000    0.25832
 18 Pd   -0.00007   -0.00004    0.18480
 19 Pd   -0.00007   -0.00004    0.18480
 20 Pd   -0.00007   -0.00004    0.18480
 21 Pd   -0.00007   -0.00004    0.18480
 22 Pd   -0.00007   -0.00004    0.18480
 23 Pd   -0.00007   -0.00004    0.18480
 24 Pd   -0.00007   -0.00004    0.18480
 25 Pd   -0.00007   -0.00004    0.18480
 26 Pd   -0.00007   -0.00004    0.18480
 27 Pd   -0.00009   -0.00005    0.06069
 28 Pd   -0.00009   -0.00005    0.06069
 29 Pd   -0.00009   -0.00005    0.06069
 30 Pd   -0.00009   -0.00005    0.06069
 31 Pd   -0.00009   -0.00005    0.06069
 32 Pd   -0.00009   -0.00005    0.06069
 33 Pd   -0.00009   -0.00005    0.06069
 34 Pd   -0.00009   -0.00005    0.06069
 35 Pd   -0.00009   -0.00005    0.06069

System changes: positions 

Initializing position-dependent things.

Density initialized from wave functions
                                           
                                           
                                           
                                           
                Pd     Pd     Pd           
                                           
            Pd   PPd    PPd    Pd          
       Pd     Pd    Pd                     
             Pd    Pd     Pd               
        Pd     Pd    Pd                    
                    Pd     Pd    Pd        
                Pd    Pd     Pd            
           Pd    Pd     Pd                 
                Pd     Pd     Pd           
            Pd    Pd     Pd                
       Pd     Pd    Pd                     
                                           
                                           
                                           
                                           

Atomic positions and initial magnetic moments

Positions:
   0 Pd     0.000000    0.000000   10.000000    ( 0.0000,  0.0000,  0.0000)
   1 Pd     2.715573    0.000000   10.000000    ( 0.0000,  0.0000,  0.0000)
   2 Pd     5.431146    0.000000   10.000000    ( 0.0000,  0.0000,  0.0000)
   3 Pd     1.357786    2.351755   10.000000    ( 0.0000,  0.0000,  0.0000)
   4 Pd     4.073359    2.351755   10.000000    ( 0.0000,  0.0000,  0.0000)
   5 Pd     6.788932    2.351755   10.000000    ( 0.0000,  0.0000,  0.0000)
   6 Pd     2.715573    4.703510   10.000000    ( 0.0000,  0.0000,  0.0000)
   7 Pd     5.431146    4.703510   10.000000    ( 0.0000,  0.0000,  0.0000)
   8 Pd     8.146719    4.703510   10.000000    ( 0.0000,  0.0000,  0.0000)
   9 Pd     1.357786    0.783918   12.217256    ( 0.0000,  0.0000,  0.0000)
  10 Pd     4.073359    0.783918   12.217256    ( 0.0000,  0.0000,  0.0000)
  11 Pd     6.788932    0.783918   12.217256    ( 0.0000,  0.0000,  0.0000)
  12 Pd     2.715573    3.135673   12.217256    ( 0.0000,  0.0000,  0.0000)
  13 Pd     5.431146    3.135673   12.217256    ( 0.0000,  0.0000,  0.0000)
  14 Pd     8.146719    3.135673   12.217256    ( 0.0000,  0.0000,  0.0000)
  15 Pd     4.073359    5.487429   12.217256    ( 0.0000,  0.0000,  0.0000)
  16 Pd     6.788932    5.487429   12.217256    ( 0.0000,  0.0000,  0.0000)
  17 Pd     9.504505    5.487429   12.217256    ( 0.0000,  0.0000,  0.0000)
  18 Pd    -0.000024    1.567822   14.485066    ( 0.0000,  0.0000,  0.0000)
  19 Pd     2.715549    1.567822   14.485066    ( 0.0000,  0.0000,  0.0000)
  20 Pd     5.431122    1.567822   14.485066    ( 0.0000,  0.0000,  0.0000)
  21 Pd     1.357762    3.919577   14.485066    ( 0.0000,  0.0000,  0.0000)
  22 Pd     4.073335    3.919577   14.485066    ( 0.0000,  0.0000,  0.0000)
  23 Pd     6.788908    3.919577   14.485066    ( 0.0000,  0.0000,  0.0000)
  24 Pd     2.715549    6.271332   14.485066    ( 0.0000,  0.0000,  0.0000)
  25 Pd     5.431122    6.271332   14.485066    ( 0.0000,  0.0000,  0.0000)
  26 Pd     8.146694    6.271332   14.485066    ( 0.0000,  0.0000,  0.0000)
  27 Pd    -0.000054   -0.000031   16.769244    ( 0.0000,  0.0000,  0.0000)
  28 Pd     2.715519   -0.000031   16.769244    ( 0.0000,  0.0000,  0.0000)
  29 Pd     5.431092   -0.000031   16.769244    ( 0.0000,  0.0000,  0.0000)
  30 Pd     1.357733    2.351724   16.769244    ( 0.0000,  0.0000,  0.0000)
  31 Pd     4.073306    2.351724   16.769244    ( 0.0000,  0.0000,  0.0000)
  32 Pd     6.788879    2.351724   16.769244    ( 0.0000,  0.0000,  0.0000)
  33 Pd     2.715519    4.703479   16.769244    ( 0.0000,  0.0000,  0.0000)
  34 Pd     5.431092    4.703479   16.769244    ( 0.0000,  0.0000,  0.0000)
  35 Pd     8.146665    4.703479   16.769244    ( 0.0000,  0.0000,  0.0000)

Unit cell:
           periodic     x           y           z      points  spacing
  1. axis:    yes    8.146719    0.000000    0.000000    36     0.1960
  2. axis:    yes    4.073359    7.055265    0.000000    36     0.1960
  3. axis:    no     0.000000    0.000000   26.651768   132     0.2019

  Lengths:   8.146719   8.146719  26.651768
  Angles:   90.000000  90.000000  60.000000

Effective grid spacing dv^(1/3) = 0.2077

     iter     time        total  log10-change:
                         energy   eigst   dens
iter:   1 13:42:53   -95.739203        c
iter:   2 13:45:55   -95.750609        c -3.36
iter:   3 13:50:02   -95.740330c       c -3.05
iter:   4 13:54:35   -95.736398c       c -3.33
iter:   5 13:58:24   -95.734342c       c -3.56
iter:   6 14:02:21   -95.733571c       c -3.85
iter:   7 14:07:09   -95.733259c       c -3.92
iter:   8 14:10:48   -95.732794c       c -4.05c

Converged after 8 iterations.

Dipole moment: (-13.076893, -7.549912, -0.013781) |e|*Ang

Energy contributions relative to reference atoms: (reference = -4940189.665851)

Kinetic:       -1954.535412
Potential:     +1716.371300
External:        +0.000000
XC:            +141.374754
Entropy (-ST):   -2.526390
Local:           +2.319759
SIC:             +0.000000
--------------------------
Free energy:    -96.995989
Extrapolated:   -95.732794

Showing only first 2 kpts
 Kpt  Band  Eigenvalues  Occupancy
  0   286     -5.96697    1.88991
  0   287     -5.95267    1.87404
  0   288     -5.95267    1.87404
  0   289     -5.80627    1.54970

  1   286     -5.75829    1.36104
  1   287     -5.74563    1.30476
  1   288     -5.62872    0.73657
  1   289     -5.62576    0.72286


Fermi level: -5.68268

No gap
No difference between direct/indirect transitions

Forces in eV/Ang:
  0 Pd    0.00015    0.00009   -0.48139
  1 Pd    0.00015    0.00009   -0.48139
  2 Pd    0.00015    0.00009   -0.48139
  3 Pd    0.00015    0.00009   -0.48139
  4 Pd    0.00015    0.00009   -0.48139
  5 Pd    0.00015    0.00009   -0.48139
  6 Pd    0.00015    0.00009   -0.48139
  7 Pd    0.00015    0.00009   -0.48139
  8 Pd    0.00015    0.00009   -0.48139
  9 Pd   -0.00003   -0.00002    0.50898
 10 Pd   -0.00003   -0.00002    0.50898
 11 Pd   -0.00003   -0.00002    0.50898
 12 Pd   -0.00003   -0.00002    0.50898
 13 Pd   -0.00003   -0.00002    0.50898
 14 Pd   -0.00003   -0.00002    0.50898
 15 Pd   -0.00003   -0.00002    0.50898
 16 Pd   -0.00003   -0.00002    0.50898
 17 Pd   -0.00003   -0.00002    0.50898
 18 Pd   -0.00003   -0.00002   -0.05598
 19 Pd   -0.00003   -0.00002   -0.05598
 20 Pd   -0.00003   -0.00002   -0.05598
 21 Pd   -0.00003   -0.00002   -0.05598
 22 Pd   -0.00003   -0.00002   -0.05598
 23 Pd   -0.00003   -0.00002   -0.05598
 24 Pd   -0.00003   -0.00002   -0.05598
 25 Pd   -0.00003   -0.00002   -0.05598
 26 Pd   -0.00003   -0.00002   -0.05598
 27 Pd   -0.00013   -0.00008    0.04371
 28 Pd   -0.00013   -0.00008    0.04371
 29 Pd   -0.00013   -0.00008    0.04371
 30 Pd   -0.00013   -0.00008    0.04371
 31 Pd   -0.00013   -0.00008    0.04371
 32 Pd   -0.00013   -0.00008    0.04371
 33 Pd   -0.00013   -0.00008    0.04371
 34 Pd   -0.00013   -0.00008    0.04371
 35 Pd   -0.00013   -0.00008    0.04371

Writing to pd_slab_opt.gpw (mode='all')

Timing:                                       incl.     excl.
--------------------------------------------------------------------
Basic WFS set positions:                      0.726     0.013   0.0% |
 Redistribute:                                0.713     0.713   0.0% |
Basis functions set positions:               16.431    16.431   0.0% |
Forces:                                    5056.423     4.928   0.0% |
 LCAO forces:                              5051.494     0.358   0.0% |
  Atomic Hamiltonian force:                   6.081     6.081   0.0% |
  Initial:                                    1.379     0.000   0.0% |
   Get density matrix:                        1.379     1.379   0.0% |
  Paw correction:                             5.821     5.821   0.0% |
  Potential:                               4966.810  4966.810  14.1% |-----|
  TCI derivative:                            71.043    71.043   0.2% |
  Wait for sum:                               0.003     0.003   0.0% |
LCAO WFS Initialize:                        645.523     2.247   0.0% |
 Density initialized from wave functions:   618.993     1.901   0.0% |
  Calculate density matrix:                   0.348     0.348   0.0% |
  Construct density:                        616.744   616.744   1.7% ||
  Symmetrize density:                         0.000     0.000   0.0% |
 Hamiltonian:                                24.284     0.035   0.0% |
  Atomic:                                    14.456     0.061   0.0% |
   XC Correction:                            14.395    14.395   0.0% |
  Calculate atomic Hamiltonians:              0.686     0.686   0.0% |
  Communicate:                                0.000     0.000   0.0% |
  Hartree integrate/restrict:                 0.151     0.151   0.0% |
  Initialize Hamiltonian:                     0.002     0.002   0.0% |
  Poisson:                                    4.540     0.540   0.0% |
   Communicate from 1D:                       1.893     1.893   0.0% |
   Communicate from 2D:                       0.194     0.194   0.0% |
   Communicate to 1D:                         0.130     0.130   0.0% |
   Communicate to 2D:                         0.500     0.500   0.0% |
   FFT 1D:                                    0.601     0.601   0.0% |
   FFT 2D:                                    0.682     0.682   0.0% |
  XC 3D grid:                                 4.036     4.036   0.0% |
  vbar:                                       0.377     0.377   0.0% |
P tci:                                       55.225    55.225   0.2% |
Redistribute:                                 0.001     0.001   0.0% |
SCF-cycle:                                15446.072     2.602   0.0% |
 Density:                                 10442.890     0.004   0.0% |
  Atomic density matrices:                   17.563    17.563   0.0% |
  Mix:                                       17.838    17.838   0.1% |
  Multipole moments:                          0.151     0.151   0.0% |
  Normalize:                                  0.016     0.016   0.0% |
  Pseudo density:                         10407.318     0.371   0.0% |
   Calculate density matrix:                  8.255     8.255   0.0% |
   Construct density:                     10398.688 10398.688  29.4% |-----------|
   Symmetrize density:                        0.004     0.004   0.0% |
 Hamiltonian:                               151.684     0.008   0.0% |
  Atomic:                                   102.121     0.303   0.0% |
   XC Correction:                           101.818   101.818   0.3% |
  Calculate atomic Hamiltonians:              3.466     3.466   0.0% |
  Communicate:                                0.000     0.000   0.0% |
  Hartree integrate/restrict:                 0.950     0.950   0.0% |
  Poisson:                                   17.027     0.980   0.0% |
   Communicate from 1D:                       2.292     2.292   0.0% |
   Communicate from 2D:                       1.216     1.216   0.0% |
   Communicate to 1D:                         1.473     1.473   0.0% |
   Communicate to 2D:                         2.738     2.738   0.0% |
   FFT 1D:                                    4.651     4.651   0.0% |
   FFT 2D:                                    3.677     3.677   0.0% |
  XC 3D grid:                                27.431    27.431   0.1% |
  vbar:                                       0.680     0.680   0.0% |
 LCAO eigensolver:                         4848.897     0.390   0.0% |
  Calculate projections:                     17.348    17.348   0.0% |
  DenseAtomicCorrection:                     24.529    24.529   0.1% |
  Distribute overlap matrix:                  0.501     0.501   0.0% |
  Orbital Layouts:                          851.056   851.056   2.4% ||
  Potential matrix:                        3915.671  3915.671  11.1% |---|
  Sum over cells:                            39.401    39.401   0.1% |
ST tci:                                      26.388    26.388   0.1% |
Set symmetry:                                 0.005     0.005   0.0% |
TCI: Evaluate splines:                        0.185     0.185   0.0% |
mktci:                                        1.759     1.759   0.0% |
Other:                                    14099.040 14099.040  39.9% |---------------|
--------------------------------------------------------------------
Total:                                              35347.778 100.0%

Memory usage: 1.54 GiB
Date: Tue Sep 30 18:20:52 2025
