36
Lattice="8.146718647406452 0.0 0.0 4.073359323703226 7.055265306138388 0.0 0.0 0.0 26.651767921387517" Properties=species:S:1:pos:R:3:move_mask:L:1:tags:I:1:magmoms:R:1:forces:R:3 energy=-95.73279380638462 free_energy=-96.99598877173472 dipole="-13.07689261647057 -7.549911668027815 -0.01378093828313483" magmom=0.0 pbc="T T F"
Pd       0.00000000       0.00000000      10.00000000  F        4       0.00000000       0.00014516       0.00008514      -0.48139486
Pd       2.71557288       0.00000000      10.00000000  F        4       0.00000000       0.00014516       0.00008514      -0.48139486
Pd       5.43114576       0.00000000      10.00000000  F        4       0.00000000       0.00014516       0.00008514      -0.48139486
Pd       1.35778644       2.35175510      10.00000000  F        4       0.00000000       0.00014516       0.00008514      -0.48139486
Pd       4.07335932       2.35175510      10.00000000  F        4       0.00000000       0.00014516       0.00008514      -0.48139486
Pd       6.78893221       2.35175510      10.00000000  F        4       0.00000000       0.00014516       0.00008514      -0.48139486
Pd       2.71557288       4.70351020      10.00000000  F        4       0.00000000       0.00014516       0.00008514      -0.48139486
Pd       5.43114576       4.70351020      10.00000000  F        4       0.00000000       0.00014516       0.00008514      -0.48139486
Pd       8.14671865       4.70351020      10.00000000  F        4       0.00000000       0.00014516       0.00008514      -0.48139486
Pd       1.35778644       0.78391837      12.21725597  F        3       0.00000000      -0.00002705      -0.00001558       0.50898166
Pd       4.07335932       0.78391837      12.21725597  F        3       0.00000000      -0.00002705      -0.00001558       0.50898166
Pd       6.78893221       0.78391837      12.21725597  F        3       0.00000000      -0.00002705      -0.00001558       0.50898166
Pd       2.71557288       3.13567347      12.21725597  F        3       0.00000000      -0.00002705      -0.00001558       0.50898166
Pd       5.43114576       3.13567347      12.21725597  F        3       0.00000000      -0.00002705      -0.00001558       0.50898166
Pd       8.14671865       3.13567347      12.21725597  F        3       0.00000000      -0.00002705      -0.00001558       0.50898166
Pd       4.07335932       5.48742857      12.21725597  F        3       0.00000000      -0.00002705      -0.00001558       0.50898166
Pd       6.78893221       5.48742857      12.21725597  F        3       0.00000000      -0.00002705      -0.00001558       0.50898166
Pd       9.50450509       5.48742857      12.21725597  F        3       0.00000000      -0.00002705      -0.00001558       0.50898166
Pd      -0.00002422       1.56782225      14.48506625  T        2       0.00000000      -0.00003272      -0.00001940      -0.05597710
Pd       2.71554866       1.56782225      14.48506625  T        2       0.00000000      -0.00003272      -0.00001940      -0.05597710
Pd       5.43112155       1.56782225      14.48506625  T        2       0.00000000      -0.00003272      -0.00001940      -0.05597710
Pd       1.35776222       3.91957735      14.48506625  T        2       0.00000000      -0.00003272      -0.00001940      -0.05597710
Pd       4.07333510       3.91957735      14.48506625  T        2       0.00000000      -0.00003272      -0.00001940      -0.05597710
Pd       6.78890799       3.91957735      14.48506625  T        2       0.00000000      -0.00003272      -0.00001940      -0.05597710
Pd       2.71554866       6.27133245      14.48506625  T        2       0.00000000      -0.00003272      -0.00001940      -0.05597710
Pd       5.43112155       6.27133245      14.48506625  T        2       0.00000000      -0.00003272      -0.00001940      -0.05597710
Pd       8.14669443       6.27133245      14.48506625  T        2       0.00000000      -0.00003272      -0.00001940      -0.05597710
Pd      -0.00005351      -0.00003139      16.76924405  T        1       0.00000000      -0.00013034      -0.00007650       0.04370953
Pd       2.71551937      -0.00003139      16.76924405  T        1       0.00000000      -0.00013034      -0.00007650       0.04370953
Pd       5.43109226      -0.00003139      16.76924405  T        1       0.00000000      -0.00013034      -0.00007650       0.04370953
Pd       1.35773293       2.35172371      16.76924405  T        1       0.00000000      -0.00013034      -0.00007650       0.04370953
Pd       4.07330582       2.35172371      16.76924405  T        1       0.00000000      -0.00013034      -0.00007650       0.04370953
Pd       6.78887870       2.35172371      16.76924405  T        1       0.00000000      -0.00013034      -0.00007650       0.04370953
Pd       2.71551937       4.70347882      16.76924405  T        1       0.00000000      -0.00013034      -0.00007650       0.04370953
Pd       5.43109226       4.70347882      16.76924405  T        1       0.00000000      -0.00013034      -0.00007650       0.04370953
Pd       8.14666514       4.70347882      16.76924405  T        1       0.00000000      -0.00013034      -0.00007650       0.04370953
